/*--------------------------------*- C++ -*----------------------------------*\
  =========                 |
  \\      /  F ield         | OpenFOAM: The Open Source CFD Toolbox
   \\    /   O peration     | Website:  https://openfoam.org
    \\  /    A nd           | Version:  dev
     \\/     M anipulation  |
\*---------------------------------------------------------------------------*/
FoamFile
{
    format      ascii;
    class       volScalarField;
    location    "0.14";
    object      beta;
}
// * * * * * * * * * * * * * * * * * * * * * * * * * * * * * * * * * * * * * //

dimensions      [0 0 0 0 0 0 0];

internalField   uniform 0;

boundaryField
{
    frontAndBack
    {
        type            empty;
    }
    inlet
    {
        type            calculated;
        value           uniform 0;
    }
    outlet
    {
        type            calculated;
        value           uniform 0;
    }
    substrate
    {
        type            calculated;
        value           nonuniform List<scalar> 
400
(
0.00280674
0.00295744
0.0030716
0.00317755
0.0032794
0.00337744
0.00347265
0.00356588
0.00365773
0.00374865
0.00383895
0.00392887
0.0040186
0.00410828
0.004198
0.00428783
0.00437781
0.00446795
0.00455827
0.00464875
0.00473937
0.0048301
0.0049209
0.00501172
0.00510253
0.00519326
0.00528387
0.00537431
0.00546451
0.00555442
0.00564399
0.00573316
0.00582188
0.00591009
0.00599774
0.00608477
0.00617115
0.00625682
0.00634173
0.00642584
0.0065091
0.00659148
0.00667294
0.00675344
0.00683294
0.00691142
0.00698884
0.00706518
0.00714041
0.0072145
0.00728744
0.0073592
0.00742978
0.00749914
0.00756729
0.00763421
0.00769988
0.00776431
0.00782749
0.00788941
0.00795008
0.00800949
0.00806764
0.00812453
0.00818018
0.00823458
0.00828775
0.00833969
0.00839041
0.00843991
0.00848822
0.00853535
0.0085813
0.00862609
0.00866974
0.00871226
0.00875367
0.00879398
0.00883321
0.00887137
0.0089085
0.0089446
0.00897969
0.00901379
0.00904692
0.0090791
0.00911035
0.00914069
0.00917013
0.0091987
0.00922642
0.0092533
0.00927936
0.00930463
0.00932912
0.00935285
0.00937584
0.0093981
0.00941967
0.00944054
0.00946075
0.00948031
0.00949923
0.00951754
0.00953525
0.00955238
0.00956894
0.00958494
0.00960042
0.00961537
0.00962981
0.00964377
0.00965725
0.00967027
0.00968284
0.00969497
0.00970669
0.00971799
0.0097289
0.00973942
0.00974957
0.00975936
0.00976881
0.00977791
0.00978668
0.00979514
0.0098033
0.00981115
0.00981872
0.00982601
0.00983303
0.00983979
0.0098463
0.00985257
0.0098586
0.00986441
0.00986999
0.00987537
0.00988054
0.00988551
0.0098903
0.0098949
0.00989932
0.00990357
0.00990765
0.00991158
0.00991535
0.00991897
0.00992245
0.00992579
0.009929
0.00993208
0.00993504
0.00993788
0.0099406
0.00994322
0.00994572
0.00994813
0.00995043
0.00995264
0.00995476
0.0099568
0.00995874
0.00996061
0.0099624
0.00996411
0.00996575
0.00996732
0.00996883
0.00997027
0.00997164
0.00997296
0.00997422
0.00997543
0.00997659
0.00997769
0.00997875
0.00997975
0.00998072
0.00998164
0.00998252
0.00998336
0.00998417
0.00998494
0.00998567
0.00998637
0.00998704
0.00998767
0.00998828
0.00998886
0.00998941
0.00998994
0.00999045
0.00999093
0.00999138
0.00999182
0.00999223
0.00999263
0.00999301
0.00999336
0.00999371
0.00999403
0.00999434
0.00999463
0.00999491
0.00999518
0.00999543
0.00999567
0.0099959
0.00999612
0.00999633
0.00999652
0.00999671
0.00999689
0.00999705
0.00999721
0.00999737
0.00999751
0.00999765
0.00999778
0.0099979
0.00999801
0.00999812
0.00999823
0.00999833
0.00999842
0.00999851
0.00999859
0.00999867
0.00999875
0.00999882
0.00999889
0.00999895
0.00999901
0.00999907
0.00999912
0.00999918
0.00999922
0.00999927
0.00999931
0.00999935
0.00999939
0.00999943
0.00999946
0.00999949
0.00999952
0.00999955
0.00999958
0.00999961
0.00999963
0.00999965
0.00999967
0.00999969
0.00999971
0.00999973
0.00999975
0.00999976
0.00999978
0.00999979
0.0099998
0.00999982
0.00999983
0.00999984
0.00999985
0.00999986
0.00999987
0.00999988
0.00999988
0.00999989
0.0099999
0.00999991
0.00999991
0.00999992
0.00999992
0.00999993
0.00999993
0.00999994
0.00999994
0.00999995
0.00999995
0.00999995
0.00999996
0.00999996
0.00999996
0.00999996
0.00999997
0.00999997
0.00999997
0.00999997
0.00999998
0.00999998
0.00999998
0.00999998
0.00999998
0.00999998
0.00999998
0.00999999
0.00999999
0.00999999
0.00999999
0.00999999
0.00999999
0.00999999
0.00999999
0.00999999
0.00999999
0.00999999
0.00999999
0.00999999
0.00999999
0.00999999
0.01
0.01
0.01
0.01
0.01
0.01
0.01
0.01
0.01
0.01
0.01
0.01
0.01
0.01
0.01
0.01
0.01
0.01
0.01
0.01
0.01
0.01
0.01
0.01
0.01
0.01
0.01
0.01
0.01
0.01
0.01
0.01
0.01
0.01
0.01
0.01
0.01
0.01
0.01
0.01
0.01
0.01
0.01
0.01
0.01
0.01
0.01
0.01
0.01
0.01
0.01
0.01
0.01
0.01
0.01
0.01
0.01
0.01
0.01
0.01
0.01
0.01
0.01
0.01
0.01
0.01
0.01
0.01
0.01
0.01
0.01
0.01
0.01
0.01
0.01
0.01
0.01
0.01
0.01
0.01
0.01
0.01
0.01
0.01
0.01
0.01
0.01
0.01
0.01
)
;
    }
    Wall
    {
        type            calculated;
        value           nonuniform List<scalar> 
400
(
0.00280674
0.00295744
0.00307159
0.00317754
0.00327939
0.00337745
0.00347266
0.00356589
0.00365775
0.00374867
0.00383896
0.00392889
0.00401862
0.00410829
0.00419801
0.00428784
0.00437781
0.00446796
0.00455827
0.00464875
0.00473936
0.00483009
0.00492088
0.0050117
0.00510251
0.00519324
0.00528385
0.00537428
0.00546448
0.00555439
0.00564396
0.00573312
0.00582184
0.00591005
0.00599769
0.00608473
0.0061711
0.00625677
0.00634168
0.00642579
0.00650905
0.00659143
0.00667289
0.00675339
0.00683289
0.00691137
0.00698879
0.00706512
0.00714035
0.00721444
0.00728738
0.00735915
0.00742972
0.00749908
0.00756723
0.00763415
0.00769982
0.00776426
0.00782743
0.00788936
0.00795002
0.00800943
0.00806758
0.00812448
0.00818013
0.00823453
0.0082877
0.00833963
0.00839035
0.00843986
0.00848817
0.0085353
0.00858125
0.00862604
0.00866969
0.00871221
0.00875362
0.00879393
0.00883316
0.00887133
0.00890845
0.00894455
0.00897964
0.00901375
0.00904688
0.00907906
0.00911031
0.00914065
0.00917009
0.00919867
0.00922638
0.00925326
0.00927933
0.0093046
0.00932909
0.00935282
0.00937581
0.00939807
0.00941964
0.00944051
0.00946072
0.00948028
0.00949921
0.00951752
0.00953523
0.00955235
0.00956891
0.00958492
0.00960039
0.00961534
0.00962979
0.00964375
0.00965723
0.00967025
0.00968282
0.00969495
0.00970667
0.00971797
0.00972888
0.00973941
0.00974956
0.00975935
0.00976879
0.00977789
0.00978667
0.00979513
0.00980328
0.00981114
0.00981871
0.009826
0.00983302
0.00983978
0.00984629
0.00985256
0.00985859
0.0098644
0.00986998
0.00987536
0.00988053
0.0098855
0.00989029
0.00989489
0.00989931
0.00990356
0.00990764
0.00991157
0.00991534
0.00991896
0.00992244
0.00992579
0.009929
0.00993208
0.00993503
0.00993787
0.0099406
0.00994321
0.00994572
0.00994812
0.00995043
0.00995264
0.00995476
0.00995679
0.00995874
0.00996061
0.00996239
0.00996411
0.00996575
0.00996732
0.00996882
0.00997026
0.00997164
0.00997296
0.00997422
0.00997543
0.00997658
0.00997769
0.00997874
0.00997975
0.00998072
0.00998164
0.00998252
0.00998336
0.00998417
0.00998493
0.00998567
0.00998637
0.00998703
0.00998767
0.00998828
0.00998886
0.00998941
0.00998994
0.00999044
0.00999092
0.00999138
0.00999182
0.00999223
0.00999263
0.009993
0.00999336
0.0099937
0.00999403
0.00999434
0.00999463
0.00999491
0.00999518
0.00999543
0.00999567
0.0099959
0.00999612
0.00999633
0.00999652
0.00999671
0.00999689
0.00999705
0.00999721
0.00999737
0.00999751
0.00999765
0.00999777
0.0099979
0.00999801
0.00999812
0.00999823
0.00999833
0.00999842
0.00999851
0.00999859
0.00999867
0.00999875
0.00999882
0.00999889
0.00999895
0.00999901
0.00999907
0.00999912
0.00999917
0.00999922
0.00999927
0.00999931
0.00999935
0.00999939
0.00999943
0.00999946
0.00999949
0.00999952
0.00999955
0.00999958
0.00999961
0.00999963
0.00999965
0.00999967
0.00999969
0.00999971
0.00999973
0.00999975
0.00999976
0.00999978
0.00999979
0.0099998
0.00999982
0.00999983
0.00999984
0.00999985
0.00999986
0.00999987
0.00999988
0.00999988
0.00999989
0.0099999
0.00999991
0.00999991
0.00999992
0.00999992
0.00999993
0.00999993
0.00999994
0.00999994
0.00999995
0.00999995
0.00999995
0.00999996
0.00999996
0.00999996
0.00999996
0.00999997
0.00999997
0.00999997
0.00999997
0.00999998
0.00999998
0.00999998
0.00999998
0.00999998
0.00999998
0.00999998
0.00999999
0.00999999
0.00999999
0.00999999
0.00999999
0.00999999
0.00999999
0.00999999
0.00999999
0.00999999
0.00999999
0.00999999
0.00999999
0.00999999
0.00999999
0.01
0.01
0.01
0.01
0.01
0.01
0.01
0.01
0.01
0.01
0.01
0.01
0.01
0.01
0.01
0.01
0.01
0.01
0.01
0.01
0.01
0.01
0.01
0.01
0.01
0.01
0.01
0.01
0.01
0.01
0.01
0.01
0.01
0.01
0.01
0.01
0.01
0.01
0.01
0.01
0.01
0.01
0.01
0.01
0.01
0.01
0.01
0.01
0.01
0.01
0.01
0.01
0.01
0.01
0.01
0.01
0.01
0.01
0.01
0.01
0.01
0.01
0.01
0.01
0.01
0.01
0.01
0.01
0.01
0.01
0.01
0.01
0.01
0.01
0.01
0.01
0.01
0.01
0.01
0.01
0.01
0.01
0.01
0.01
0.01
0.01
0.01
0.01
0.01
)
;
    }
}


// ************************************************************************* //
