/*--------------------------------*- C++ -*----------------------------------*\
  =========                 |
  \\      /  F ield         | OpenFOAM: The Open Source CFD Toolbox
   \\    /   O peration     | Website:  https://openfoam.org
    \\  /    A nd           | Version:  dev
     \\/     M anipulation  |
\*---------------------------------------------------------------------------*/
FoamFile
{
    format      ascii;
    class       volScalarField;
    location    "0.14";
    object      Exp1;
}
// * * * * * * * * * * * * * * * * * * * * * * * * * * * * * * * * * * * * * //

dimensions      [0 0 0 0 0 0 0];

internalField   uniform 0;

boundaryField
{
    frontAndBack
    {
        type            empty;
    }
    inlet
    {
        type            calculated;
        value           uniform 0;
    }
    outlet
    {
        type            calculated;
        value           uniform 0;
    }
    substrate
    {
        type            calculated;
        value           nonuniform List<scalar> 
400
(
0.0271119
0.0284302
0.0299101
0.0313439
0.0327069
0.0340036
0.0352321
0.0363905
0.0374787
0.0384973
0.0394477
0.0403313
0.0411495
0.041904
0.0425962
0.0432276
0.0437998
0.0443141
0.044772
0.0451749
0.0455242
0.0458212
0.0460675
0.0462644
0.0464133
0.0465158
0.0465732
0.0465871
0.0465592
0.0464909
0.0463833
0.0462381
0.046057
0.0458414
0.0455928
0.0453129
0.0450032
0.0446651
0.0443002
0.04391
0.043496
0.0430595
0.0426021
0.0421251
0.0416299
0.0411179
0.0405904
0.0400486
0.0394939
0.0389275
0.0383505
0.0377641
0.0371694
0.0365676
0.0359596
0.0353464
0.034729
0.0341084
0.0334854
0.0328609
0.0322357
0.0316106
0.0309862
0.0303633
0.0297426
0.0291247
0.0285101
0.0278995
0.0272933
0.026692
0.0260961
0.025506
0.0249221
0.0243447
0.0237742
0.0232109
0.022655
0.0221068
0.0215665
0.0210343
0.0205104
0.0199949
0.019488
0.0189898
0.0185004
0.0180198
0.0175481
0.0170853
0.0166314
0.0161866
0.0157507
0.0153237
0.0149057
0.0144965
0.0140961
0.0137045
0.0133216
0.0129473
0.0125816
0.0122242
0.0118752
0.0115344
0.0112018
0.0108771
0.0105604
0.0102514
0.00995008
0.00965628
0.00936987
0.00909072
0.0088187
0.00855369
0.00829554
0.00804413
0.00779932
0.00756098
0.00732897
0.00710316
0.00688343
0.00666963
0.00646164
0.00625934
0.00606258
0.00587126
0.00568523
0.00550439
0.00532861
0.00515776
0.00499174
0.00483043
0.00467371
0.00452147
0.0043736
0.00423
0.00409056
0.00395518
0.00382374
0.00369617
0.00357235
0.00345219
0.0033356
0.00322248
0.00311275
0.00300633
0.00290311
0.00280302
0.00270598
0.00261191
0.00252073
0.00243236
0.00234672
0.00226375
0.00218337
0.00210551
0.00203011
0.00195709
0.0018864
0.00181796
0.00175172
0.00168761
0.00162558
0.00156557
0.00150752
0.00145137
0.00139708
0.00134459
0.00129384
0.0012448
0.0011974
0.0011516
0.00110736
0.00106463
0.00102336
0.000983517
0.000945052
0.000907924
0.000872095
0.000837525
0.000804176
0.00077201
0.000740992
0.000711086
0.000682258
0.000654474
0.000627701
0.000601907
0.000577062
0.000553135
0.000530097
0.000507919
0.000486573
0.000466032
0.00044627
0.000427261
0.00040898
0.000391403
0.000374505
0.000358265
0.000342659
0.000327667
0.000313266
0.000299437
0.00028616
0.000273415
0.000261183
0.000249447
0.000238188
0.00022739
0.000217036
0.00020711
0.000197596
0.000188479
0.000179745
0.000171378
0.000163367
0.000155696
0.000148354
0.000141327
0.000134604
0.000128173
0.000122022
0.000116142
0.000110521
0.000105148
0.000100015
9.51111e-05
9.04278e-05
8.5956e-05
8.16872e-05
7.7613e-05
7.37255e-05
7.0017e-05
6.648e-05
6.31075e-05
5.98925e-05
5.68284e-05
5.39087e-05
5.11274e-05
4.84785e-05
4.59562e-05
4.35552e-05
4.12701e-05
3.90958e-05
3.70275e-05
3.50604e-05
3.31901e-05
3.14123e-05
2.97226e-05
2.81173e-05
2.65924e-05
2.51442e-05
2.37693e-05
2.24643e-05
2.12258e-05
2.00508e-05
1.89363e-05
1.78795e-05
1.68776e-05
1.5928e-05
1.50282e-05
1.41758e-05
1.33685e-05
1.26041e-05
1.18805e-05
1.11957e-05
1.05477e-05
9.93488e-06
9.35531e-06
8.80738e-06
8.28949e-06
7.80011e-06
7.33779e-06
6.90116e-06
6.48888e-06
6.0997e-06
5.73242e-06
5.3859e-06
5.05904e-06
4.75083e-06
4.46025e-06
4.18639e-06
3.92834e-06
3.68525e-06
3.45632e-06
3.24078e-06
3.0379e-06
2.84699e-06
2.66739e-06
2.49847e-06
2.33964e-06
2.19034e-06
2.05003e-06
1.91821e-06
1.79439e-06
1.67813e-06
1.56899e-06
1.46656e-06
1.37046e-06
1.28031e-06
1.19578e-06
1.11654e-06
1.04227e-06
9.72677e-07
9.07492e-07
8.46449e-07
7.89301e-07
7.35814e-07
6.85767e-07
6.38952e-07
5.95173e-07
5.54244e-07
5.1599e-07
4.80246e-07
4.46857e-07
4.15676e-07
3.86565e-07
3.59396e-07
3.34044e-07
3.10396e-07
2.88343e-07
2.67784e-07
2.48622e-07
2.30767e-07
2.14136e-07
1.98648e-07
1.8423e-07
1.70811e-07
1.58325e-07
1.46712e-07
1.35912e-07
1.25872e-07
1.16542e-07
1.07873e-07
9.98207e-08
9.23438e-08
8.5403e-08
7.89617e-08
7.29857e-08
6.7443e-08
6.23037e-08
5.75397e-08
5.31251e-08
4.90352e-08
4.52474e-08
4.17404e-08
3.84943e-08
3.54905e-08
3.27119e-08
3.01421e-08
2.77664e-08
2.55706e-08
2.35417e-08
2.16676e-08
1.9937e-08
1.83394e-08
1.6865e-08
1.55046e-08
1.42499e-08
1.3093e-08
1.20265e-08
1.10437e-08
1.01383e-08
9.30448e-09
8.53676e-09
7.83013e-09
7.17993e-09
6.58182e-09
6.0318e-09
5.52616e-09
5.06147e-09
4.63453e-09
4.24241e-09
3.88238e-09
3.55193e-09
3.24872e-09
2.97061e-09
2.71562e-09
2.48191e-09
2.26781e-09
2.07176e-09
1.89233e-09
1.72821e-09
1.57821e-09
1.44122e-09
1.31625e-09
1.20239e-09
1.09881e-09
1.00479e-09
9.19662e-10
8.42865e-10
7.73903e-10
7.12365e-10
6.57919e-10
6.10314e-10
5.69384e-10
5.35046e-10
5.073e-10
4.86228e-10
4.7198e-10
4.64756e-10
)
;
    }
    Wall
    {
        type            calculated;
        value           nonuniform List<scalar> 
400
(
0.0271116
0.0284295
0.0299104
0.0313443
0.0327066
0.0340025
0.0352303
0.0363881
0.0374758
0.0384941
0.0394442
0.0403276
0.0411456
0.0418999
0.042592
0.0432234
0.0437955
0.0443098
0.0447677
0.0451706
0.0455199
0.045817
0.0460634
0.0462603
0.0464093
0.0465119
0.0465694
0.0465834
0.0465556
0.0464873
0.0463798
0.0462348
0.0460537
0.0458382
0.0455898
0.04531
0.0450004
0.0446625
0.0442977
0.0439076
0.0434936
0.0430573
0.0425999
0.042123
0.041628
0.041116
0.0405886
0.040047
0.0394924
0.038926
0.0383491
0.0377628
0.0371682
0.0365664
0.0359585
0.0353454
0.0347281
0.0341076
0.0334846
0.0328602
0.032235
0.03161
0.0309857
0.0303629
0.0297422
0.0291243
0.0285098
0.0278992
0.0272931
0.0266918
0.026096
0.0255059
0.024922
0.0243447
0.0237742
0.0232109
0.022655
0.0221068
0.0215666
0.0210344
0.0205105
0.0199951
0.0194882
0.01899
0.0185006
0.01802
0.0175483
0.0170855
0.0166317
0.0161868
0.0157509
0.015324
0.0149059
0.0144968
0.0140964
0.0137048
0.0133219
0.0129476
0.0125818
0.0122245
0.0118755
0.0115347
0.0112021
0.0108774
0.0105607
0.0102517
0.00995037
0.00965656
0.00937015
0.009091
0.00881898
0.00855397
0.00829582
0.0080444
0.00779959
0.00756125
0.00732923
0.00710342
0.00688368
0.00666988
0.00646189
0.00625958
0.00606282
0.00587149
0.00568547
0.00550462
0.00532883
0.00515798
0.00499196
0.00483064
0.00467392
0.00452168
0.00437381
0.0042302
0.00409076
0.00395537
0.00382393
0.00369635
0.00357253
0.00345236
0.00333577
0.00322265
0.00311292
0.00300649
0.00290327
0.00280318
0.00270614
0.00261206
0.00252087
0.0024325
0.00234686
0.00226389
0.0021835
0.00210564
0.00203024
0.00195722
0.00188652
0.00181808
0.00175183
0.00168773
0.00162569
0.00156568
0.00150762
0.00145148
0.00139718
0.00134469
0.00129394
0.00124489
0.00119749
0.00115169
0.00110745
0.00106471
0.00102344
0.000983596
0.000945128
0.000907999
0.000872168
0.000837596
0.000804245
0.000772077
0.000741057
0.000711149
0.000682319
0.000654533
0.000627759
0.000601963
0.000577117
0.000553188
0.000530148
0.000507969
0.000486621
0.000466079
0.000446316
0.000427305
0.000409023
0.000391444
0.000374545
0.000358304
0.000342697
0.000327703
0.000313302
0.000299472
0.000286193
0.000273447
0.000261214
0.000249477
0.000238217
0.000227418
0.000217063
0.000207136
0.000197621
0.000188503
0.000179768
0.000171401
0.000163388
0.000155717
0.000148374
0.000141346
0.000134623
0.000128191
0.00012204
0.000116159
0.000110537
0.000105164
0.00010003
9.51254e-05
9.04415e-05
8.59692e-05
8.16998e-05
7.76252e-05
7.37372e-05
7.00282e-05
6.64908e-05
6.31178e-05
5.99024e-05
5.68378e-05
5.39178e-05
5.11361e-05
4.84868e-05
4.59642e-05
4.35628e-05
4.12774e-05
3.91028e-05
3.70342e-05
3.50668e-05
3.31963e-05
3.14181e-05
2.97283e-05
2.81227e-05
2.65975e-05
2.51491e-05
2.3774e-05
2.24687e-05
2.123e-05
2.00549e-05
1.89402e-05
1.78832e-05
1.68811e-05
1.59314e-05
1.50314e-05
1.41788e-05
1.33714e-05
1.26068e-05
1.18831e-05
1.11982e-05
1.05501e-05
9.93714e-06
9.35746e-06
8.80943e-06
8.29143e-06
7.80195e-06
7.33954e-06
6.90282e-06
6.49045e-06
6.10119e-06
5.73384e-06
5.38724e-06
5.06032e-06
4.75204e-06
4.4614e-06
4.18747e-06
3.92936e-06
3.68622e-06
3.45724e-06
3.24165e-06
3.03873e-06
2.84777e-06
2.66812e-06
2.49916e-06
2.3403e-06
2.19096e-06
2.05061e-06
1.91876e-06
1.79492e-06
1.67862e-06
1.56946e-06
1.467e-06
1.37087e-06
1.2807e-06
1.19615e-06
1.11688e-06
1.04259e-06
9.72984e-07
9.07781e-07
8.46721e-07
7.89557e-07
7.36055e-07
6.85993e-07
6.39165e-07
5.95373e-07
5.54432e-07
5.16166e-07
4.80411e-07
4.47012e-07
4.15821e-07
3.86702e-07
3.59524e-07
3.34164e-07
3.10509e-07
2.88449e-07
2.67882e-07
2.48714e-07
2.30854e-07
2.14217e-07
1.98724e-07
1.84301e-07
1.70877e-07
1.58387e-07
1.4677e-07
1.35966e-07
1.25923e-07
1.16589e-07
1.07917e-07
9.98617e-08
9.23821e-08
8.54386e-08
7.89949e-08
7.30167e-08
6.74719e-08
6.23305e-08
5.75648e-08
5.31483e-08
4.90569e-08
4.52676e-08
4.17592e-08
3.85117e-08
3.55067e-08
3.27269e-08
3.01561e-08
2.77794e-08
2.55826e-08
2.35529e-08
2.1678e-08
1.99466e-08
1.83483e-08
1.68732e-08
1.55122e-08
1.4257e-08
1.30995e-08
1.20325e-08
1.10493e-08
1.01435e-08
9.30928e-09
8.5412e-09
7.83423e-09
7.18371e-09
6.58532e-09
6.03503e-09
5.52915e-09
5.06422e-09
4.63707e-09
4.24475e-09
3.88454e-09
3.55391e-09
3.25055e-09
2.9723e-09
2.71717e-09
2.48334e-09
2.26913e-09
2.07297e-09
1.89344e-09
1.72924e-09
1.57915e-09
1.44209e-09
1.31705e-09
1.20312e-09
1.09948e-09
1.00541e-09
9.20232e-10
8.43391e-10
7.74389e-10
7.12815e-10
6.58337e-10
6.10705e-10
5.69752e-10
5.35395e-10
5.07634e-10
4.86545e-10
4.7227e-10
4.65027e-10
)
;
    }
}


// ************************************************************************* //
