/*--------------------------------*- C++ -*----------------------------------*\
  =========                 |
  \\      /  F ield         | OpenFOAM: The Open Source CFD Toolbox
   \\    /   O peration     | Website:  https://openfoam.org
    \\  /    A nd           | Version:  dev
     \\/     M anipulation  |
\*---------------------------------------------------------------------------*/
FoamFile
{
    format      ascii;
    class       volScalarField;
    location    "0.14";
    object      growth;
}
// * * * * * * * * * * * * * * * * * * * * * * * * * * * * * * * * * * * * * //

dimensions      [0 0 0 0 0 0 0];

internalField   uniform 0;

boundaryField
{
    frontAndBack
    {
        type            empty;
    }
    inlet
    {
        type            calculated;
        value           uniform 0;
    }
    outlet
    {
        type            calculated;
        value           uniform 0;
    }
    substrate
    {
        type            calculated;
        value           nonuniform List<scalar> 
400
(
0.719326
0.704256
0.69284
0.682245
0.67206
0.662256
0.652735
0.643412
0.634227
0.625135
0.616105
0.607113
0.59814
0.589172
0.5802
0.571217
0.562219
0.553205
0.544173
0.535125
0.526063
0.51699
0.50791
0.498828
0.489747
0.480674
0.471613
0.462569
0.453549
0.444558
0.435601
0.426684
0.417812
0.408991
0.400226
0.391523
0.382885
0.374318
0.365827
0.357416
0.34909
0.340852
0.332706
0.324656
0.316706
0.308858
0.301116
0.293482
0.285959
0.27855
0.271256
0.26408
0.257022
0.250086
0.243271
0.236579
0.230012
0.223569
0.217251
0.211059
0.204992
0.199051
0.193236
0.187547
0.181982
0.176542
0.171225
0.166031
0.160959
0.156009
0.151178
0.146465
0.14187
0.137391
0.133026
0.128774
0.124633
0.120602
0.116679
0.112863
0.10915
0.10554
0.102031
0.0986211
0.0953079
0.0920898
0.0889648
0.0859311
0.0829867
0.0801297
0.0773582
0.0746702
0.0720638
0.0695371
0.0670882
0.0647152
0.0624163
0.0601896
0.0580334
0.0559457
0.0539248
0.051969
0.0500766
0.0482457
0.0464749
0.0447623
0.0431065
0.0415057
0.0399585
0.0384633
0.0370186
0.035623
0.0342749
0.0329731
0.0317162
0.0305027
0.0293314
0.0282009
0.0271102
0.0260578
0.0250427
0.0240636
0.0231194
0.0222091
0.0213315
0.0204857
0.0196705
0.018885
0.0181282
0.0173992
0.0166971
0.0160209
0.0153699
0.0147432
0.0141399
0.0135593
0.0130006
0.0124631
0.011946
0.0114486
0.0109703
0.0105105
0.0100683
0.00964331
0.00923483
0.00884231
0.00846517
0.00810287
0.00775488
0.00742068
0.00709978
0.00679169
0.00649595
0.00621211
0.00593974
0.00567841
0.0054277
0.00518724
0.00495664
0.00473552
0.00452353
0.00432034
0.00412559
0.00393898
0.0037602
0.00358893
0.0034249
0.00326782
0.00311743
0.00297345
0.00283565
0.00270378
0.00257761
0.0024569
0.00234145
0.00223104
0.00212546
0.00202454
0.00192807
0.00183588
0.00174779
0.00166363
0.00158325
0.00150649
0.00143319
0.00136322
0.00129643
0.00123269
0.00117187
0.00111385
0.00105852
0.00100575
0.00095543
0.000907465
0.000861749
0.000818185
0.000776679
0.000737142
0.000699486
0.000663629
0.000629492
0.000596998
0.000566074
0.000536649
0.000508657
0.000482033
0.000456715
0.000432642
0.00040976
0.000388012
0.000367347
0.000347714
0.000329066
0.000311357
0.000294542
0.000278581
0.000263432
0.000249057
0.000235419
0.000222483
0.000210216
0.000198585
0.000187559
0.00017711
0.000167208
0.000157828
0.000148943
0.00014053
0.000132564
0.000125024
0.000117888
0.000111136
0.000104749
9.87086e-05
9.29966e-05
8.75966e-05
8.24927e-05
7.76696e-05
7.31128e-05
6.88087e-05
6.4744e-05
6.09063e-05
5.72837e-05
5.38649e-05
5.06391e-05
4.75961e-05
4.47262e-05
4.20201e-05
3.9469e-05
3.70647e-05
3.47991e-05
3.26647e-05
3.06544e-05
2.87614e-05
2.69792e-05
2.53018e-05
2.37234e-05
2.22384e-05
2.08416e-05
1.95281e-05
1.82932e-05
1.71325e-05
1.60418e-05
1.50171e-05
1.40545e-05
1.31507e-05
1.23021e-05
1.15056e-05
1.07582e-05
1.00569e-05
9.39922e-06
8.78246e-06
8.20423e-06
7.66227e-06
7.15442e-06
6.67865e-06
6.23303e-06
5.81576e-06
5.42513e-06
5.05953e-06
4.71743e-06
4.39741e-06
4.0981e-06
3.81825e-06
3.55664e-06
3.31216e-06
3.08373e-06
2.87035e-06
2.67109e-06
2.48505e-06
2.3114e-06
2.14936e-06
1.99818e-06
1.85718e-06
1.72569e-06
1.60312e-06
1.48889e-06
1.38245e-06
1.2833e-06
1.19096e-06
1.10499e-06
1.02497e-06
9.50502e-07
8.81224e-07
8.16788e-07
7.56872e-07
7.01173e-07
6.49408e-07
6.01312e-07
5.56635e-07
5.15146e-07
4.76628e-07
4.40876e-07
4.07701e-07
3.76926e-07
3.48384e-07
3.2192e-07
2.97389e-07
2.74656e-07
2.53595e-07
2.34088e-07
2.16026e-07
1.99305e-07
1.8383e-07
1.69512e-07
1.56269e-07
1.44022e-07
1.327e-07
1.22236e-07
1.12568e-07
1.03636e-07
9.53886e-08
8.77739e-08
8.07456e-08
7.42603e-08
6.82778e-08
6.27604e-08
5.76735e-08
5.29848e-08
4.86642e-08
4.4684e-08
4.10183e-08
3.76431e-08
3.45365e-08
3.16776e-08
2.90476e-08
2.66287e-08
2.44047e-08
2.23604e-08
2.04817e-08
1.87558e-08
1.71707e-08
1.57153e-08
1.43793e-08
1.31533e-08
1.20285e-08
1.0997e-08
1.00511e-08
9.18409e-09
8.38956e-09
7.66167e-09
6.99501e-09
6.3846e-09
5.82586e-09
5.31456e-09
4.8468e-09
4.41899e-09
4.02784e-09
3.67031e-09
3.3436e-09
3.04515e-09
2.77258e-09
2.52374e-09
2.29662e-09
2.0894e-09
1.90039e-09
1.72805e-09
1.57097e-09
1.42785e-09
1.29752e-09
1.17887e-09
1.07094e-09
9.72807e-10
8.83656e-10
8.02741e-10
7.29388e-10
6.62989e-10
6.03001e-10
5.48939e-10
5.00381e-10
4.56959e-10
4.18363e-10
3.84338e-10
3.54686e-10
3.29267e-10
3.07995e-10
2.90844e-10
2.77839e-10
2.69057e-10
2.64608e-10
)
;
    }
    Wall
    {
        type            calculated;
        value           nonuniform List<scalar> 
400
(
0.719326
0.704256
0.692841
0.682246
0.672061
0.662255
0.652734
0.643411
0.634225
0.625133
0.616104
0.607111
0.598138
0.589171
0.580199
0.571216
0.562219
0.553204
0.544173
0.535125
0.526064
0.516991
0.507912
0.49883
0.489749
0.480676
0.471615
0.462572
0.453552
0.444561
0.435604
0.426688
0.417816
0.408995
0.400231
0.391527
0.38289
0.374323
0.365832
0.357421
0.349095
0.340857
0.332711
0.324661
0.316711
0.308863
0.301121
0.293488
0.285965
0.278556
0.271262
0.264085
0.257028
0.250092
0.243277
0.236585
0.230018
0.223574
0.217257
0.211064
0.204998
0.199057
0.193242
0.187552
0.181987
0.176547
0.17123
0.166037
0.160965
0.156014
0.151183
0.14647
0.141875
0.137396
0.133031
0.128779
0.124638
0.120607
0.116684
0.112867
0.109155
0.105545
0.102036
0.0986253
0.095312
0.0920938
0.0889688
0.085935
0.0829906
0.0801335
0.0773619
0.0746738
0.0720673
0.0695405
0.0670915
0.0647184
0.0624195
0.0601927
0.0580364
0.0559486
0.0539277
0.0519718
0.0500793
0.0482484
0.0464774
0.0447648
0.0431089
0.0415081
0.0399608
0.0384655
0.0370208
0.0356251
0.034277
0.0329752
0.0317181
0.0305046
0.0293332
0.0282027
0.0271119
0.0260595
0.0250443
0.0240652
0.023121
0.0222106
0.021333
0.0204871
0.0196719
0.0188863
0.0181295
0.0174005
0.0166983
0.0160221
0.0153711
0.0147443
0.014141
0.0135603
0.0130016
0.0124641
0.0119469
0.0114496
0.0109712
0.0105113
0.0100692
0.00964412
0.00923562
0.00884307
0.00846591
0.00810359
0.00775557
0.00742135
0.00710042
0.00679231
0.00649656
0.0062127
0.0059403
0.00567895
0.00542823
0.00518775
0.00495713
0.00473599
0.00452399
0.00432078
0.00412602
0.00393939
0.00376059
0.00358931
0.00342527
0.00326818
0.00311777
0.00297378
0.00283597
0.00270409
0.0025779
0.00245718
0.00234172
0.0022313
0.00212572
0.00202478
0.0019283
0.0018361
0.00174801
0.00166384
0.00158345
0.00150668
0.00143338
0.00136339
0.0012966
0.00123285
0.00117203
0.00111401
0.00105866
0.00100589
0.000955564
0.000907594
0.000861873
0.000818303
0.000776793
0.00073725
0.00069959
0.000663729
0.000629587
0.000597089
0.000566161
0.000536733
0.000508738
0.00048211
0.000456788
0.000432713
0.000409827
0.000388076
0.000367408
0.000347773
0.000329122
0.00031141
0.000294594
0.00027863
0.000263478
0.000249101
0.000235462
0.000222524
0.000210255
0.000198622
0.000187595
0.000177144
0.00016724
0.000157859
0.000148973
0.000140558
0.000132591
0.000125049
0.000117912
0.000111159
0.000104771
9.87292e-05
9.30162e-05
8.76153e-05
8.25104e-05
7.76864e-05
7.31288e-05
6.88239e-05
6.47585e-05
6.092e-05
5.72967e-05
5.38773e-05
5.06508e-05
4.76072e-05
4.47367e-05
4.20301e-05
3.94785e-05
3.70736e-05
3.48075e-05
3.26727e-05
3.0662e-05
2.87686e-05
2.6986e-05
2.53083e-05
2.37295e-05
2.22441e-05
2.0847e-05
1.95333e-05
1.82981e-05
1.71371e-05
1.60461e-05
1.50212e-05
1.40584e-05
1.31543e-05
1.23055e-05
1.15089e-05
1.07612e-05
1.00598e-05
9.40195e-06
8.78503e-06
8.20666e-06
7.66455e-06
7.15657e-06
6.68067e-06
6.23493e-06
5.81755e-06
5.42682e-06
5.06111e-06
4.71892e-06
4.3988e-06
4.09942e-06
3.81948e-06
3.5578e-06
3.31325e-06
3.08475e-06
2.87131e-06
2.67199e-06
2.48589e-06
2.31219e-06
2.1501e-06
1.99887e-06
1.85783e-06
1.72631e-06
1.6037e-06
1.48943e-06
1.38295e-06
1.28377e-06
1.1914e-06
1.1054e-06
1.02535e-06
9.50862e-07
8.81559e-07
8.17101e-07
7.57165e-07
7.01447e-07
6.49663e-07
6.0155e-07
5.56857e-07
5.15354e-07
4.76821e-07
4.41056e-07
4.07869e-07
3.77083e-07
3.4853e-07
3.22055e-07
2.97515e-07
2.74774e-07
2.53705e-07
2.3419e-07
2.1612e-07
1.99393e-07
1.83912e-07
1.69588e-07
1.56339e-07
1.44088e-07
1.32761e-07
1.22293e-07
1.1262e-07
1.03685e-07
9.54337e-08
8.78157e-08
8.07843e-08
7.42962e-08
6.8311e-08
6.27912e-08
5.77021e-08
5.30112e-08
4.86886e-08
4.47066e-08
4.10391e-08
3.76625e-08
3.45543e-08
3.16941e-08
2.90628e-08
2.66428e-08
2.44177e-08
2.23724e-08
2.04928e-08
1.8766e-08
1.71801e-08
1.57239e-08
1.43873e-08
1.31606e-08
1.20353e-08
1.10032e-08
1.00568e-08
9.18936e-09
8.39441e-09
7.66613e-09
6.99911e-09
6.38837e-09
5.82933e-09
5.31774e-09
4.84972e-09
4.42168e-09
4.03031e-09
3.67257e-09
3.34568e-09
3.04705e-09
2.77433e-09
2.52534e-09
2.29808e-09
2.09074e-09
1.90161e-09
1.72917e-09
1.57199e-09
1.42879e-09
1.29838e-09
1.17966e-09
1.07166e-09
9.73464e-10
8.84257e-10
8.03291e-10
7.2989e-10
6.63449e-10
6.03421e-10
5.49324e-10
5.00734e-10
4.57283e-10
4.18661e-10
3.84613e-10
3.54942e-10
3.29506e-10
3.08221e-10
2.91059e-10
2.78043e-10
2.69243e-10
2.64781e-10
)
;
    }
}


// ************************************************************************* //
