/*--------------------------------*- C++ -*----------------------------------*\
  =========                 |
  \\      /  F ield         | OpenFOAM: The Open Source CFD Toolbox
   \\    /   O peration     | Website:  https://openfoam.org
    \\  /    A nd           | Version:  dev
     \\/     M anipulation  |
\*---------------------------------------------------------------------------*/
FoamFile
{
    format      ascii;
    class       volScalarField;
    location    "0.14";
    object      N1;
}
// * * * * * * * * * * * * * * * * * * * * * * * * * * * * * * * * * * * * * //

dimensions      [0 0 0 0 0 0 0];

internalField   nonuniform List<scalar> 
8000
(
0.205862
0.21593
0.227216
0.238154
0.248555
0.258455
0.267838
0.276691
0.285011
0.292805
0.300082
0.306853
0.313129
0.318921
0.324241
0.3291
0.33351
0.337481
0.341023
0.344147
0.346864
0.349184
0.351118
0.352676
0.353868
0.354707
0.355202
0.355366
0.35521
0.354745
0.353981
0.352929
0.351602
0.350011
0.348168
0.346084
0.343771
0.341241
0.338504
0.335573
0.332458
0.32917
0.32572
0.322119
0.318378
0.314506
0.310514
0.306411
0.302207
0.297912
0.293535
0.289083
0.284567
0.279993
0.275371
0.270708
0.266011
0.261287
0.256543
0.251786
0.247022
0.242257
0.237497
0.232746
0.228011
0.223295
0.218604
0.213942
0.209312
0.204719
0.200166
0.195656
0.191192
0.186777
0.182414
0.178105
0.173853
0.169658
0.165523
0.161449
0.157438
0.153492
0.14961
0.145794
0.142044
0.138362
0.134747
0.131201
0.127723
0.124312
0.120971
0.117697
0.114491
0.111354
0.108283
0.105279
0.102342
0.0994702
0.0966637
0.0939217
0.0912435
0.0886282
0.0860751
0.0835832
0.0811518
0.0787798
0.0764664
0.0742106
0.0720114
0.0698679
0.067779
0.0657438
0.0637612
0.0618302
0.0599498
0.0581191
0.0563368
0.0546022
0.0529141
0.0512716
0.0496736
0.0481192
0.0466074
0.0451373
0.0437078
0.0423181
0.0409673
0.0396544
0.0383785
0.0371387
0.0359342
0.0347641
0.0336276
0.0325239
0.031452
0.0304114
0.0294011
0.0284204
0.0274686
0.0265449
0.0256486
0.024779
0.0239355
0.0231173
0.0223237
0.0215543
0.0208082
0.020085
0.0193839
0.0187044
0.018046
0.0174081
0.01679
0.0161914
0.0156116
0.0150502
0.0145066
0.0139804
0.013471
0.0129781
0.0125011
0.0120396
0.0115933
0.0111615
0.010744
0.0103404
0.00995016
0.00957299
0.00920851
0.00885634
0.00851613
0.00818752
0.00787017
0.00756376
0.00726795
0.00698243
0.0067069
0.00644105
0.00618458
0.00593722
0.00569868
0.0054687
0.005247
0.00503332
0.00482743
0.00462907
0.00443799
0.00425399
0.00407681
0.00390625
0.00374209
0.00358412
0.00343214
0.00328595
0.00314536
0.00301018
0.00288022
0.00275533
0.00263531
0.00252001
0.00240926
0.0023029
0.00220079
0.00210277
0.0020087
0.00191844
0.00183186
0.00174881
0.00166918
0.00159284
0.00151967
0.00144956
0.00138238
0.00131804
0.00125642
0.00119743
0.00114096
0.00108692
0.00103521
0.000985754
0.000938453
0.000893227
0.000849994
0.000808676
0.000769197
0.000731483
0.000695465
0.000661073
0.000628242
0.000596909
0.00056701
0.000538489
0.000511287
0.000485349
0.000460623
0.000437058
0.000414603
0.000393212
0.00037284
0.000353442
0.000334976
0.000317402
0.00030068
0.000284772
0.000269644
0.00025526
0.000241587
0.000228592
0.000216246
0.000204518
0.00019338
0.000182806
0.000172769
0.000163244
0.000154208
0.000145636
0.000137508
0.000129803
0.0001225
0.00011558
0.000109024
0.000102815
9.69359e-05
9.13708e-05
8.61041e-05
8.11211e-05
7.64076e-05
7.19503e-05
6.77362e-05
6.37532e-05
5.99894e-05
5.64338e-05
5.30757e-05
4.9905e-05
4.69118e-05
4.40872e-05
4.14221e-05
3.89083e-05
3.65379e-05
3.43031e-05
3.21969e-05
3.02122e-05
2.83427e-05
2.6582e-05
2.49244e-05
2.3364e-05
2.18958e-05
2.05145e-05
1.92153e-05
1.79938e-05
1.68455e-05
1.57665e-05
1.47526e-05
1.38004e-05
1.29062e-05
1.20669e-05
1.12791e-05
1.054e-05
9.8467e-06
9.19659e-06
8.58712e-06
8.01591e-06
7.48071e-06
6.97938e-06
6.50991e-06
6.07039e-06
5.65903e-06
5.27413e-06
4.91409e-06
4.57739e-06
4.26261e-06
3.9684e-06
3.6935e-06
3.43671e-06
3.1969e-06
2.97302e-06
2.76406e-06
2.56908e-06
2.38721e-06
2.2176e-06
2.05948e-06
1.91211e-06
1.7748e-06
1.64689e-06
1.52777e-06
1.41689e-06
1.31368e-06
1.21766e-06
1.12834e-06
1.04528e-06
9.68066e-07
8.96306e-07
8.29633e-07
7.67706e-07
7.10202e-07
6.56821e-07
6.07282e-07
5.61322e-07
5.18694e-07
4.79168e-07
4.42529e-07
4.08577e-07
3.77123e-07
3.47991e-07
3.21019e-07
2.96054e-07
2.72952e-07
2.51582e-07
2.31819e-07
2.13547e-07
1.9666e-07
1.81056e-07
1.66643e-07
1.53333e-07
1.41046e-07
1.29706e-07
1.19244e-07
1.09594e-07
1.00696e-07
9.24939e-08
8.49355e-08
7.79723e-08
7.15594e-08
6.5655e-08
6.02204e-08
5.52197e-08
5.06198e-08
4.63897e-08
4.25009e-08
3.8927e-08
3.56435e-08
3.26277e-08
2.98588e-08
2.73173e-08
2.49854e-08
2.28465e-08
2.08854e-08
1.9088e-08
1.74414e-08
1.59336e-08
1.45536e-08
1.32914e-08
1.21378e-08
1.10842e-08
1.01231e-08
9.24739e-09
8.45079e-09
7.72766e-09
7.07298e-09
6.48234e-09
5.95197e-09
5.47869e-09
5.05996e-09
4.69384e-09
4.37905e-09
4.11496e-09
3.90157e-09
3.7395e-09
3.62993e-09
3.57437e-09
0.20581
0.217048
0.228624
0.239818
0.25047
0.260592
0.270184
0.279241
0.287764
0.29576
0.303238
0.31021
0.316685
0.322675
0.328192
0.333245
0.337845
0.342002
0.345728
0.349031
0.351923
0.354412
0.35651
0.358227
0.359572
0.360558
0.361194
0.361491
0.361461
0.361119
0.360468
0.359523
0.358295
0.356796
0.355038
0.353031
0.350788
0.34832
0.345639
0.342755
0.339681
0.336426
0.333003
0.329421
0.325692
0.321826
0.317833
0.313723
0.309506
0.305191
0.300788
0.296306
0.291753
0.287138
0.282469
0.277755
0.273001
0.268217
0.26341
0.258584
0.253749
0.248909
0.24407
0.239238
0.234419
0.229617
0.224837
0.220084
0.215361
0.210674
0.206025
0.201418
0.196856
0.192342
0.18788
0.18347
0.179117
0.174821
0.170585
0.16641
0.162299
0.158251
0.154269
0.150353
0.146504
0.142724
0.139011
0.135368
0.131793
0.128288
0.124853
0.121486
0.118189
0.11496
0.111801
0.108709
0.105685
0.102728
0.0998382
0.0970138
0.0942547
0.0915599
0.0889288
0.0863604
0.0838539
0.0814083
0.0790228
0.0766964
0.0744281
0.0722169
0.0700618
0.0679618
0.0659159
0.063923
0.0619822
0.0600923
0.0582524
0.0564614
0.0547183
0.0530221
0.0513718
0.0497664
0.0482048
0.0466862
0.0452094
0.0437737
0.0423779
0.0410213
0.0397028
0.0384216
0.0371767
0.0359674
0.0347927
0.0336517
0.0325438
0.0314679
0.0304234
0.0294095
0.0284254
0.0274703
0.0265435
0.0256443
0.0247719
0.0239257
0.0231051
0.0223092
0.0215376
0.0207895
0.0200643
0.0193615
0.0186804
0.0180204
0.017381
0.0167617
0.0161619
0.015581
0.0150186
0.0144741
0.013947
0.013437
0.0129434
0.0124659
0.0120039
0.0115572
0.0111251
0.0107073
0.0103035
0.00991313
0.00953588
0.00917138
0.00881924
0.0084791
0.00815061
0.00783343
0.00752723
0.00723167
0.00694643
0.00667122
0.00640571
0.00614962
0.00590266
0.00566455
0.00543502
0.00521379
0.00500061
0.00479522
0.00459738
0.00440684
0.00422338
0.00404677
0.00387677
0.00371319
0.0035558
0.00340441
0.00325881
0.00311881
0.00298423
0.00285487
0.00273057
0.00261115
0.00249644
0.00238629
0.00228052
0.00217899
0.00208155
0.00198806
0.00189836
0.00181234
0.00172985
0.00165077
0.00157497
0.00150233
0.00143273
0.00136607
0.00130224
0.00124112
0.00118261
0.00112662
0.00107305
0.0010218
0.000972787
0.000925925
0.000881126
0.000838311
0.000797401
0.00075832
0.000720994
0.000685354
0.00065133
0.000618857
0.000587871
0.000558311
0.000530118
0.000503236
0.000477608
0.000453182
0.000429908
0.000407736
0.000386619
0.000366512
0.00034737
0.000329152
0.000311817
0.000295327
0.000279644
0.000264732
0.000250556
0.000237084
0.000224284
0.000212124
0.000200577
0.000189613
0.000179206
0.00016933
0.000159959
0.000151072
0.000142644
0.000134653
0.00012708
0.000119903
0.000113105
0.000106666
0.000100569
9.47971e-05
8.93348e-05
8.41666e-05
7.92779e-05
7.46548e-05
7.02839e-05
6.61525e-05
6.22484e-05
5.85602e-05
5.50768e-05
5.17876e-05
4.86827e-05
4.57524e-05
4.29876e-05
4.03797e-05
3.79205e-05
3.56019e-05
3.34167e-05
3.13576e-05
2.94178e-05
2.7591e-05
2.5871e-05
2.4252e-05
2.27284e-05
2.12951e-05
1.99469e-05
1.86793e-05
1.74877e-05
1.63679e-05
1.53157e-05
1.43275e-05
1.33995e-05
1.25283e-05
1.17107e-05
1.09436e-05
1.0224e-05
9.54917e-06
8.91654e-06
8.32362e-06
7.76805e-06
7.24764e-06
6.76028e-06
6.30401e-06
5.87696e-06
5.47736e-06
5.10356e-06
4.754e-06
4.42718e-06
4.12171e-06
3.83628e-06
3.56965e-06
3.32064e-06
3.08817e-06
2.87118e-06
2.66872e-06
2.47985e-06
2.30372e-06
2.13951e-06
1.98646e-06
1.84385e-06
1.71101e-06
1.58729e-06
1.47212e-06
1.36493e-06
1.26519e-06
1.17241e-06
1.08614e-06
1.00593e-06
9.31385e-07
8.62124e-07
7.97791e-07
7.38052e-07
6.82595e-07
6.31128e-07
5.83377e-07
5.39088e-07
4.9802e-07
4.59951e-07
4.24673e-07
3.91989e-07
3.61719e-07
3.33691e-07
3.07748e-07
2.83741e-07
2.61532e-07
2.40994e-07
2.22005e-07
2.04453e-07
1.88236e-07
1.73255e-07
1.59422e-07
1.4665e-07
1.34863e-07
1.23988e-07
1.13957e-07
1.04708e-07
9.61815e-08
8.8324e-08
8.10851e-08
7.4418e-08
6.82795e-08
6.26292e-08
5.743e-08
5.26473e-08
4.8249e-08
4.42055e-08
4.04893e-08
3.70749e-08
3.39389e-08
3.10595e-08
2.84165e-08
2.59913e-08
2.37669e-08
2.17273e-08
1.98578e-08
1.81452e-08
1.65768e-08
1.51413e-08
1.38283e-08
1.26282e-08
1.1532e-08
1.05319e-08
9.62064e-09
8.79155e-09
8.03878e-09
7.3571e-09
6.74192e-09
6.18929e-09
5.69589e-09
5.25906e-09
4.87678e-09
4.5477e-09
4.27119e-09
4.04729e-09
3.87673e-09
3.76093e-09
3.70188e-09
0.206235
0.218047
0.22967
0.240931
0.251723
0.26201
0.271778
0.281017
0.28973
0.297919
0.305595
0.312765
0.31944
0.32563
0.331345
0.336596
0.341392
0.345743
0.349658
0.353148
0.356221
0.358888
0.361159
0.363042
0.364549
0.36569
0.366475
0.366915
0.367021
0.366809
0.366283
0.365453
0.364334
0.362936
0.361272
0.359352
0.357188
0.354793
0.352176
0.34935
0.346326
0.343115
0.339727
0.336175
0.332468
0.328618
0.324634
0.320527
0.316306
0.311982
0.307564
0.30306
0.298481
0.293834
0.289128
0.284372
0.279572
0.274738
0.269875
0.264991
0.260093
0.255187
0.250279
0.245375
0.24048
0.2356
0.23074
0.225905
0.221098
0.216325
0.211588
0.206892
0.20224
0.197635
0.19308
0.188578
0.184131
0.179741
0.175411
0.171142
0.166936
0.162794
0.158718
0.154709
0.150767
0.146893
0.143089
0.139354
0.135689
0.132095
0.12857
0.125116
0.121732
0.118418
0.115174
0.111999
0.108893
0.105855
0.102885
0.0999828
0.0971467
0.0943764
0.091671
0.0890297
0.0864517
0.0839361
0.0814818
0.079088
0.0767537
0.074478
0.0722596
0.0700978
0.0679914
0.0659394
0.0639407
0.0619943
0.0600992
0.0582544
0.0564587
0.0547111
0.0530107
0.0513564
0.0497471
0.048182
0.0466599
0.04518
0.0437412
0.0423426
0.0409833
0.0396623
0.0383787
0.0371317
0.0359203
0.0347436
0.0336009
0.0324913
0.031414
0.0303681
0.0293529
0.0283676
0.0274114
0.0264837
0.0255836
0.0247105
0.0238637
0.0230425
0.0222461
0.0214741
0.0207257
0.0200003
0.0192974
0.0186162
0.0179562
0.0173169
0.0166977
0.0160981
0.0155175
0.0149553
0.0144112
0.0138846
0.013375
0.0128819
0.0124049
0.0119436
0.0114974
0.011066
0.0106489
0.0102458
0.00985615
0.00947968
0.00911597
0.00876465
0.00842534
0.00809771
0.0077814
0.00747608
0.00718142
0.00689709
0.00662279
0.00635821
0.00610306
0.00585704
0.00561987
0.00539127
0.00517099
0.00495875
0.0047543
0.0045574
0.0043678
0.00418527
0.00400958
0.0038405
0.00367783
0.00352135
0.00337085
0.00322613
0.00308701
0.00295329
0.00282479
0.00270133
0.00258274
0.00246885
0.0023595
0.00225452
0.00215377
0.00205709
0.00196435
0.00187539
0.00179008
0.0017083
0.00162991
0.00155478
0.00148281
0.00141386
0.00134783
0.00128461
0.00122409
0.00116618
0.00111076
0.00105774
0.00100704
0.000958556
0.000912208
0.000867911
0.000825582
0.000785145
0.000746523
0.000709643
0.000674435
0.000640831
0.000608765
0.000578173
0.000548996
0.000521173
0.000494648
0.000469366
0.000445275
0.000422325
0.000400465
0.00037965
0.000359834
0.000340974
0.000323028
0.000305955
0.000289717
0.000274277
0.000259599
0.000245649
0.000232394
0.000219802
0.000207844
0.00019649
0.000185712
0.000175483
0.000165778
0.000156572
0.000147842
0.000139566
0.000131721
0.000124286
0.000117243
0.000110573
0.000104256
9.82762e-05
9.26167e-05
8.72618e-05
8.21962e-05
7.74057e-05
7.28763e-05
6.85949e-05
6.45491e-05
6.07267e-05
5.71165e-05
5.37074e-05
5.04892e-05
4.74519e-05
4.45861e-05
4.18828e-05
3.93334e-05
3.69298e-05
3.46643e-05
3.25295e-05
3.05184e-05
2.86243e-05
2.68409e-05
2.51621e-05
2.35822e-05
2.20959e-05
2.06978e-05
1.93832e-05
1.81474e-05
1.69859e-05
1.58947e-05
1.48696e-05
1.3907e-05
1.30034e-05
1.21552e-05
1.13594e-05
1.06129e-05
9.91277e-06
9.25641e-06
8.64121e-06
8.06476e-06
7.52476e-06
7.01904e-06
6.54556e-06
6.10238e-06
5.68768e-06
5.29973e-06
4.93692e-06
4.5977e-06
4.28064e-06
3.98436e-06
3.70758e-06
3.44909e-06
3.20775e-06
2.98248e-06
2.77228e-06
2.57618e-06
2.3933e-06
2.2228e-06
2.06387e-06
1.91578e-06
1.77782e-06
1.64935e-06
1.52973e-06
1.4184e-06
1.31481e-06
1.21844e-06
1.12882e-06
1.04551e-06
9.68069e-07
8.96117e-07
8.29281e-07
7.67215e-07
7.09595e-07
6.56119e-07
6.06502e-07
5.6048e-07
5.17804e-07
4.78243e-07
4.41579e-07
4.07611e-07
3.76149e-07
3.47018e-07
3.20052e-07
2.95097e-07
2.72011e-07
2.5066e-07
2.30919e-07
2.12671e-07
1.9581e-07
1.80235e-07
1.6585e-07
1.5257e-07
1.40313e-07
1.29004e-07
1.18572e-07
1.08953e-07
1.00085e-07
9.19125e-08
8.4383e-08
7.7448e-08
7.10625e-08
6.51847e-08
5.97758e-08
5.48e-08
5.0224e-08
4.60169e-08
4.21501e-08
3.85973e-08
3.5334e-08
3.23375e-08
2.95869e-08
2.7063e-08
2.47477e-08
2.26248e-08
2.06788e-08
1.88959e-08
1.72632e-08
1.57687e-08
1.44015e-08
1.31517e-08
1.20101e-08
1.09684e-08
1.0019e-08
9.155e-09
8.37033e-09
7.65949e-09
7.01768e-09
6.44077e-09
5.92528e-09
5.4684e-09
5.06802e-09
4.72276e-09
4.43196e-09
4.19575e-09
4.01506e-09
3.89164e-09
3.82825e-09
0.206457
0.21865
0.230384
0.241704
0.25258
0.262976
0.27287
0.282253
0.291122
0.299478
0.307328
0.31468
0.32154
0.327919
0.333825
0.339266
0.344252
0.348792
0.352894
0.356567
0.35982
0.362663
0.365104
0.367154
0.368822
0.370119
0.371054
0.371637
0.371881
0.371798
0.3714
0.370689
0.36968
0.368387
0.36682
0.36499
0.36291
0.360591
0.358043
0.35528
0.352311
0.349149
0.345804
0.342287
0.338609
0.334781
0.330813
0.326715
0.322499
0.318173
0.313746
0.30923
0.304632
0.299962
0.295228
0.290438
0.285601
0.280725
0.275816
0.270882
0.265931
0.260968
0.256
0.251033
0.246072
0.241124
0.236193
0.231285
0.226403
0.221552
0.216737
0.211961
0.207228
0.20254
0.197902
0.193316
0.188784
0.184309
0.179893
0.175538
0.171246
0.167018
0.162856
0.158761
0.154733
0.150775
0.146886
0.143067
0.139319
0.135642
0.132036
0.1285
0.125036
0.121643
0.118321
0.115069
0.111887
0.108775
0.105731
0.102756
0.0998491
0.0970087
0.0942344
0.0915256
0.0888812
0.0863005
0.0837824
0.0813261
0.0789305
0.0765946
0.0743175
0.0720982
0.0699355
0.0678284
0.0657759
0.063777
0.0618305
0.0599354
0.0580907
0.0562953
0.0545481
0.0528482
0.0511945
0.049586
0.0480217
0.0465006
0.0450216
0.0435839
0.0421864
0.0408283
0.0395085
0.0382263
0.0369806
0.0357706
0.0345954
0.0334542
0.0323461
0.0312704
0.0302261
0.0292125
0.0282289
0.0272745
0.0263485
0.0254502
0.0245789
0.0237339
0.0229145
0.02212
0.0213498
0.0206033
0.0198798
0.0191787
0.0184995
0.0178414
0.0172041
0.0165868
0.0159891
0.0154104
0.0148502
0.014308
0.0137834
0.0132757
0.0127845
0.0123095
0.01185
0.0114058
0.0109763
0.0105611
0.0101599
0.00977212
0.00939751
0.00903564
0.00868614
0.00834865
0.00802282
0.00770829
0.00740473
0.00711181
0.00682921
0.00655661
0.00629371
0.00604021
0.00579582
0.00556027
0.00533326
0.00511454
0.00490384
0.00470091
0.0045055
0.00431737
0.00413628
0.003962
0.00379432
0.00363301
0.00347786
0.00332867
0.00318524
0.00304738
0.00291489
0.00278759
0.00266531
0.00254787
0.00243511
0.00232685
0.00222295
0.00212324
0.00202759
0.00193584
0.00184785
0.0017635
0.00168263
0.00160514
0.00153089
0.00145976
0.00139164
0.00132642
0.00126398
0.00120422
0.00114703
0.00109233
0.00104001
0.000989975
0.000942144
0.000896427
0.000852741
0.000811004
0.00077114
0.000733073
0.000696729
0.00066204
0.000628937
0.000597355
0.000567232
0.000538506
0.000511119
0.000485015
0.000460139
0.000436439
0.000413866
0.00039237
0.000371905
0.000352426
0.000333891
0.000316256
0.000299484
0.000283535
0.000268372
0.000253961
0.000240268
0.000227259
0.000214903
0.000203172
0.000192035
0.000181466
0.000171437
0.000161924
0.000152902
0.000144348
0.00013624
0.000128556
0.000121276
0.000114381
0.000107851
0.000101669
9.58186e-05
9.02824e-05
8.50451e-05
8.00919e-05
7.54086e-05
7.09815e-05
6.67978e-05
6.2845e-05
5.91114e-05
5.55857e-05
5.22572e-05
4.91157e-05
4.61514e-05
4.3355e-05
4.07179e-05
3.82314e-05
3.58876e-05
3.3679e-05
3.15982e-05
2.96384e-05
2.7793e-05
2.60558e-05
2.4421e-05
2.28828e-05
2.14359e-05
2.00753e-05
1.87962e-05
1.7594e-05
1.64644e-05
1.54034e-05
1.44069e-05
1.34713e-05
1.25932e-05
1.17693e-05
1.09963e-05
1.02714e-05
9.59173e-06
8.95466e-06
8.35768e-06
7.79843e-06
7.27465e-06
6.78424e-06
6.3252e-06
5.89563e-06
5.49376e-06
5.1179e-06
4.76648e-06
4.43798e-06
4.131e-06
3.84422e-06
3.57637e-06
3.32628e-06
3.09284e-06
2.87499e-06
2.67176e-06
2.48221e-06
2.30548e-06
2.14075e-06
1.98724e-06
1.84422e-06
1.71103e-06
1.58702e-06
1.47159e-06
1.36418e-06
1.26425e-06
1.17132e-06
1.08492e-06
1.00461e-06
9.29989e-07
8.60669e-07
7.96292e-07
7.36525e-07
6.81052e-07
6.29581e-07
5.81836e-07
5.3756e-07
4.96514e-07
4.58472e-07
4.23225e-07
3.90578e-07
3.60347e-07
3.32361e-07
3.06462e-07
2.82501e-07
2.60339e-07
2.39847e-07
2.20906e-07
2.03402e-07
1.87231e-07
1.72297e-07
1.58509e-07
1.45782e-07
1.34039e-07
1.23206e-07
1.13216e-07
1.04007e-07
9.55188e-08
8.76983e-08
8.04949e-08
7.38618e-08
6.77559e-08
6.21368e-08
5.69673e-08
5.22129e-08
4.78415e-08
4.38236e-08
4.01318e-08
3.67405e-08
3.36264e-08
3.07676e-08
2.81443e-08
2.57377e-08
2.35309e-08
2.15079e-08
1.96543e-08
1.79566e-08
1.64026e-08
1.49808e-08
1.36809e-08
1.24934e-08
1.14095e-08
1.04215e-08
9.52215e-09
8.70506e-09
7.96454e-09
7.29556e-09
6.69378e-09
6.15557e-09
5.67798e-09
5.25881e-09
4.8966e-09
4.59074e-09
4.34146e-09
4.14993e-09
4.01836e-09
3.95028e-09
0.206556
0.219007
0.230883
0.242275
0.253208
0.263667
0.273641
0.283122
0.292105
0.300592
0.308586
0.316091
0.323114
0.329661
0.335739
0.341354
0.346516
0.35123
0.355506
0.359351
0.362773
0.365782
0.368386
0.370593
0.372415
0.373859
0.374937
0.375658
0.376034
0.376073
0.3758
0.375203
0.374302
0.37311
0.371638
0.369897
0.367899
0.365655
0.363178
0.360477
0.357565
0.354453
0.351152
0.347673
0.344027
0.340225
0.336277
0.332194
0.327986
0.323663
0.319235
0.314712
0.310102
0.305415
0.30066
0.295845
0.290978
0.286068
0.281122
0.276147
0.27115
0.26614
0.261121
0.2561
0.251083
0.246076
0.241084
0.236112
0.231165
0.226247
0.221363
0.216517
0.211713
0.206953
0.202241
0.19758
0.192974
0.188423
0.183931
0.1795
0.175132
0.170827
0.166589
0.162417
0.158314
0.154279
0.150315
0.146421
0.142599
0.138848
0.135168
0.131561
0.128025
0.124561
0.121169
0.117848
0.114598
0.111418
0.108309
0.105268
0.102297
0.0993935
0.0965573
0.0937876
0.0910835
0.0884441
0.0858685
0.0833558
0.080905
0.078515
0.0761848
0.0739136
0.0717001
0.0695433
0.0674422
0.0653958
0.0634029
0.0614624
0.0595734
0.0577348
0.0559454
0.0542043
0.0525104
0.0508627
0.0492601
0.0477016
0.0461863
0.0447132
0.0432812
0.0418894
0.040537
0.0392228
0.0379461
0.0367058
0.0355012
0.0343314
0.0331955
0.0320926
0.031022
0.0299828
0.0289743
0.0279957
0.0270461
0.026125
0.0252314
0.0243648
0.0235245
0.0227096
0.0219197
0.021154
0.0204119
0.0196927
0.0189959
0.0183208
0.0176669
0.0170337
0.0164204
0.0158267
0.0152519
0.0146955
0.0141571
0.0136361
0.0131321
0.0126446
0.0121731
0.0117171
0.0112763
0.0108501
0.0104383
0.0100403
0.0096557
0.00928422
0.00892542
0.00857894
0.00824441
0.00792147
0.00760979
0.00730902
0.00701883
0.0067389
0.00646893
0.0062086
0.00595761
0.00571569
0.00548254
0.00525788
0.00504147
0.00483302
0.00463228
0.00443902
0.00425299
0.00407394
0.00390167
0.00373593
0.00357652
0.00342323
0.00327585
0.00313418
0.00299803
0.00286721
0.00274154
0.00262084
0.00250494
0.00239367
0.00228687
0.00218439
0.00208606
0.00199174
0.00190129
0.00181456
0.00173142
0.00165175
0.0015754
0.00150226
0.00143222
0.00136514
0.00130093
0.00123947
0.00118066
0.0011244
0.00107058
0.00101912
0.000969922
0.000922894
0.000877953
0.000835017
0.000794004
0.000754839
0.000717446
0.000681753
0.00064769
0.000615192
0.000584193
0.000554631
0.000526446
0.000499579
0.000473976
0.000449583
0.000426347
0.00040422
0.000383153
0.000363101
0.000344018
0.000325863
0.000308594
0.000292172
0.000276559
0.00026172
0.000247618
0.000234222
0.000221497
0.000209415
0.000197944
0.000187058
0.000176728
0.000166928
0.000157634
0.000148822
0.000140469
0.000132552
0.000125052
0.000117947
0.000111219
0.000104849
9.88192e-05
9.31137e-05
8.77162e-05
8.26111e-05
7.7784e-05
7.32208e-05
6.89082e-05
6.48334e-05
6.09844e-05
5.73496e-05
5.3918e-05
5.06789e-05
4.76225e-05
4.47391e-05
4.20196e-05
3.94555e-05
3.70384e-05
3.47605e-05
3.26144e-05
3.0593e-05
2.86895e-05
2.68976e-05
2.52111e-05
2.36242e-05
2.21315e-05
2.07278e-05
1.9408e-05
1.81675e-05
1.70019e-05
1.5907e-05
1.48786e-05
1.39131e-05
1.30068e-05
1.21564e-05
1.13585e-05
1.06103e-05
9.90865e-06
9.25098e-06
8.63467e-06
8.05727e-06
7.51648e-06
7.0101e-06
6.53609e-06
6.0925e-06
5.67749e-06
5.28932e-06
4.92637e-06
4.58707e-06
4.27e-06
3.97376e-06
3.69707e-06
3.43871e-06
3.19753e-06
2.97246e-06
2.76247e-06
2.56662e-06
2.384e-06
2.21376e-06
2.05512e-06
1.90732e-06
1.76966e-06
1.64148e-06
1.52216e-06
1.41113e-06
1.30783e-06
1.21176e-06
1.12243e-06
1.0394e-06
9.62242e-07
8.90563e-07
8.23992e-07
7.62185e-07
7.04816e-07
6.51581e-07
6.02199e-07
5.56402e-07
5.13943e-07
4.7459e-07
4.38127e-07
4.04351e-07
3.73073e-07
3.44117e-07
3.17318e-07
2.92523e-07
2.69589e-07
2.48382e-07
2.28778e-07
2.10661e-07
1.93924e-07
1.78465e-07
1.64192e-07
1.51017e-07
1.38859e-07
1.27643e-07
1.173e-07
1.07764e-07
9.89744e-08
9.08757e-08
8.34156e-08
7.65459e-08
7.02217e-08
6.44015e-08
5.90467e-08
5.41216e-08
4.9593e-08
4.54304e-08
4.16053e-08
3.80914e-08
3.48646e-08
3.19022e-08
2.91835e-08
2.66894e-08
2.44021e-08
2.23052e-08
2.03837e-08
1.86237e-08
1.70125e-08
1.55382e-08
1.41901e-08
1.29584e-08
1.1834e-08
1.08088e-08
9.87536e-09
9.02699e-09
8.25778e-09
7.56249e-09
6.93659e-09
6.37629e-09
5.8785e-09
5.44093e-09
5.06207e-09
4.74135e-09
4.4791e-09
4.2768e-09
4.1371e-09
4.06433e-09
0.206624
0.219242
0.231236
0.242697
0.253673
0.264171
0.274192
0.283734
0.292797
0.301379
0.309483
0.317112
0.324269
0.330957
0.337182
0.342949
0.348265
0.353134
0.357564
0.361562
0.365136
0.368294
0.371043
0.373393
0.375353
0.376931
0.378139
0.378985
0.37948
0.379634
0.379468
0.37898
0.378177
0.377078
0.375693
0.374034
0.372113
0.36994
0.367527
0.364886
0.362028
0.358964
0.355705
0.352263
0.348649
0.344874
0.340947
0.336881
0.332684
0.328368
0.323942
0.319416
0.3148
0.310102
0.305331
0.300497
0.295607
0.290671
0.285694
0.280686
0.275654
0.270604
0.265543
0.260477
0.255414
0.250357
0.245314
0.240289
0.235287
0.230313
0.225371
0.220466
0.215601
0.210779
0.206005
0.201281
0.19661
0.191995
0.187438
0.182942
0.178508
0.174138
0.169834
0.165596
0.161428
0.157328
0.153299
0.14934
0.145454
0.141639
0.137896
0.134226
0.130628
0.127103
0.12365
0.12027
0.11696
0.113723
0.110556
0.107459
0.104432
0.101474
0.0985841
0.0957616
0.0930056
0.0903153
0.0876898
0.085128
0.0826292
0.0801921
0.0778159
0.0754995
0.0732418
0.0710418
0.0688985
0.0668107
0.0647774
0.0627975
0.0608699
0.0589936
0.0571674
0.0553904
0.0536615
0.0519796
0.0503437
0.0487528
0.0472058
0.0457018
0.0442397
0.0428186
0.0414375
0.0400956
0.0387917
0.0375252
0.0362949
0.0351001
0.0339399
0.0328134
0.0317198
0.0306582
0.0296279
0.0286281
0.0276581
0.0267169
0.025804
0.0249185
0.0240598
0.0232272
0.02242
0.0216375
0.0208791
0.0201441
0.0194319
0.018742
0.0180737
0.0174263
0.0167995
0.0161926
0.015605
0.0150363
0.0144858
0.0139532
0.0134379
0.0129395
0.0124574
0.0119911
0.0115404
0.0111046
0.0106834
0.0102764
0.00988315
0.00950324
0.00913628
0.00878191
0.00843975
0.00810943
0.00779062
0.00748295
0.0071861
0.00689974
0.00662355
0.00635721
0.00610043
0.0058529
0.00561435
0.00538448
0.00516303
0.00494973
0.00474432
0.00454654
0.00435615
0.00417291
0.00399659
0.00382696
0.0036638
0.00350689
0.00335602
0.003211
0.00307162
0.0029377
0.00280904
0.00268547
0.0025668
0.00245288
0.00234352
0.00223858
0.00213789
0.0020413
0.00194867
0.00185985
0.0017747
0.0016931
0.0016149
0.00153999
0.00146824
0.00139953
0.00133375
0.00127079
0.00121054
0.0011529
0.00109776
0.00104503
0.000994617
0.000946428
0.000900376
0.000856376
0.000814346
0.000774207
0.000735883
0.0006993
0.000664387
0.000631076
0.0005993
0.000568996
0.000540102
0.000512559
0.00048631
0.0004613
0.000437476
0.000414788
0.000393186
0.000372623
0.000353054
0.000334436
0.000316725
0.000299883
0.00028387
0.000268649
0.000254185
0.000240442
0.00022739
0.000214994
0.000203227
0.000192058
0.000181459
0.000171404
0.000161868
0.000152825
0.000144253
0.000136129
0.000128432
0.00012114
0.000114234
0.000107696
0.000101507
9.56508e-05
9.01099e-05
8.48692e-05
7.99135e-05
7.52286e-05
7.08008e-05
6.66171e-05
6.26649e-05
5.89325e-05
5.54085e-05
5.20822e-05
4.89432e-05
4.59819e-05
4.31888e-05
4.05551e-05
3.80723e-05
3.57324e-05
3.35278e-05
3.14512e-05
2.94956e-05
2.76546e-05
2.59217e-05
2.42912e-05
2.27574e-05
2.13149e-05
1.99587e-05
1.86839e-05
1.74859e-05
1.63605e-05
1.53035e-05
1.43111e-05
1.33795e-05
1.25053e-05
1.16851e-05
1.09158e-05
1.01944e-05
9.51823e-06
8.88452e-06
8.29079e-06
7.73468e-06
7.21395e-06
6.72647e-06
6.27024e-06
5.8434e-06
5.44414e-06
5.0708e-06
4.72178e-06
4.3956e-06
4.09084e-06
3.80617e-06
3.54035e-06
3.2922e-06
3.06061e-06
2.84453e-06
2.64299e-06
2.45505e-06
2.27985e-06
2.11657e-06
1.96444e-06
1.82274e-06
1.6908e-06
1.56798e-06
1.45367e-06
1.34732e-06
1.24841e-06
1.15644e-06
1.07094e-06
9.91489e-07
9.17676e-07
8.4912e-07
7.85465e-07
7.26379e-07
6.71549e-07
6.20683e-07
5.73508e-07
5.2977e-07
4.89229e-07
4.51663e-07
4.16864e-07
3.84637e-07
3.548e-07
3.27186e-07
3.01634e-07
2.78e-07
2.56144e-07
2.35939e-07
2.17266e-07
2.00014e-07
1.84078e-07
1.69365e-07
1.55782e-07
1.43248e-07
1.31684e-07
1.21019e-07
1.11186e-07
1.02123e-07
9.37711e-08
8.60777e-08
7.89927e-08
7.24699e-08
6.64667e-08
6.09432e-08
5.58626e-08
5.11909e-08
4.68965e-08
4.295e-08
3.93245e-08
3.5995e-08
3.29381e-08
3.01326e-08
2.75586e-08
2.51978e-08
2.30336e-08
2.10501e-08
1.92333e-08
1.75698e-08
1.60476e-08
1.46556e-08
1.33835e-08
1.22221e-08
1.11629e-08
1.01982e-08
9.32119e-09
8.52568e-09
7.80625e-09
7.1582e-09
6.57756e-09
6.06115e-09
5.60658e-09
5.21231e-09
4.87778e-09
4.60347e-09
4.3911e-09
4.24379e-09
4.16663e-09
0.206675
0.219402
0.231485
0.243004
0.254013
0.264536
0.274584
0.284163
0.293276
0.301924
0.310109
0.317831
0.325092
0.331893
0.338238
0.344129
0.349572
0.35457
0.35913
0.363257
0.366959
0.370242
0.373115
0.375586
0.377663
0.379356
0.380674
0.381627
0.382224
0.382477
0.382401
0.382007
0.38129
0.380271
0.378962
0.377374
0.375519
0.373407
0.371051
0.368462
0.365651
0.36263
0.35941
0.356002
0.352417
0.348666
0.34476
0.34071
0.336525
0.332217
0.327795
0.323269
0.318649
0.313944
0.309163
0.304315
0.299408
0.294452
0.289452
0.284419
0.279358
0.274277
0.269183
0.264082
0.258981
0.253886
0.248801
0.243733
0.238687
0.233668
0.228679
0.223725
0.218811
0.213939
0.209114
0.204339
0.199616
0.194948
0.190339
0.185789
0.181301
0.176877
0.172519
0.168228
0.164006
0.159852
0.15577
0.151758
0.147819
0.143951
0.140157
0.136435
0.132786
0.129211
0.125708
0.122278
0.11892
0.115634
0.11242
0.109277
0.106204
0.103201
0.100266
0.0974002
0.0946014
0.091869
0.0892022
0.0865999
0.0840613
0.0815853
0.079171
0.0768172
0.0745229
0.0722872
0.0701088
0.0679868
0.06592
0.0639074
0.0619479
0.0600403
0.0581837
0.056377
0.054619
0.0529088
0.0512453
0.0496274
0.0480541
0.0465245
0.0450374
0.043592
0.0421873
0.0408222
0.0394959
0.0382074
0.0369559
0.0357403
0.0345599
0.0334138
0.0323011
0.031221
0.0301727
0.0291553
0.0281681
0.0272104
0.0262813
0.0253802
0.0245063
0.0236589
0.0228373
0.0220408
0.0212689
0.0205207
0.0197958
0.0190935
0.0184131
0.0177542
0.017116
0.0164981
0.0158999
0.0153208
0.0147604
0.0142181
0.0136934
0.0131859
0.0126949
0.0122202
0.0117611
0.0113174
0.0108884
0.0104739
0.0100734
0.00968643
0.00931268
0.00895173
0.0086032
0.00826673
0.00794197
0.00762855
0.00732614
0.00703441
0.00675303
0.00648168
0.00622006
0.00596786
0.0057248
0.00549058
0.00526492
0.00504756
0.00483824
0.00463669
0.00444266
0.00425592
0.00407621
0.00390332
0.00373702
0.00357709
0.00342331
0.00327549
0.00313341
0.00299689
0.00286573
0.00273975
0.00261877
0.00250261
0.00239112
0.00228412
0.00218145
0.00208296
0.0019885
0.00189793
0.0018111
0.00172788
0.00164813
0.00157173
0.00149855
0.00142847
0.00136137
0.00129715
0.00123569
0.00117689
0.00112064
0.00106685
0.00101542
0.000966254
0.000919268
0.000874375
0.00083149
0.000790533
0.000751426
0.000714095
0.000678467
0.000644471
0.000612042
0.000581114
0.000551623
0.000523511
0.000496718
0.00047119
0.000446871
0.00042371
0.000401658
0.000380665
0.000360687
0.000341678
0.000323595
0.000306399
0.000290048
0.000274506
0.000259735
0.000245702
0.000232372
0.000219713
0.000207695
0.000196287
0.000185462
0.000175192
0.000165451
0.000156214
0.000147457
0.000139158
0.000131294
0.000123844
0.000116789
0.000110108
0.000103785
9.78005e-05
9.21386e-05
8.67831e-05
8.17188e-05
7.69309e-05
7.24057e-05
6.81296e-05
6.40902e-05
6.02752e-05
5.66731e-05
5.32729e-05
5.00641e-05
4.70367e-05
4.41812e-05
4.14886e-05
3.89502e-05
3.65578e-05
3.43036e-05
3.21802e-05
3.01805e-05
2.82978e-05
2.65257e-05
2.48581e-05
2.32894e-05
2.18141e-05
2.04269e-05
1.91229e-05
1.78975e-05
1.67463e-05
1.5665e-05
1.46497e-05
1.36966e-05
1.28022e-05
1.1963e-05
1.11759e-05
1.04377e-05
9.7458e-06
9.0973e-06
8.4897e-06
7.92057e-06
7.38762e-06
6.88868e-06
6.42172e-06
5.98481e-06
5.57611e-06
5.19393e-06
4.83664e-06
4.50271e-06
4.19069e-06
3.89924e-06
3.62707e-06
3.37299e-06
3.13584e-06
2.91457e-06
2.70818e-06
2.51571e-06
2.33627e-06
2.16904e-06
2.01323e-06
1.86809e-06
1.73294e-06
1.60712e-06
1.49002e-06
1.38108e-06
1.27974e-06
1.18551e-06
1.09791e-06
1.0165e-06
9.40862e-07
8.70611e-07
8.0538e-07
7.44827e-07
6.88633e-07
6.36501e-07
5.88149e-07
5.43317e-07
5.01761e-07
4.63253e-07
4.27579e-07
3.9454e-07
3.63951e-07
3.35638e-07
3.0944e-07
2.85206e-07
2.62795e-07
2.42076e-07
2.22927e-07
2.05234e-07
1.88891e-07
1.738e-07
1.59869e-07
1.47012e-07