/*--------------------------------*- C++ -*----------------------------------*\
  =========                 |
  \\      /  F ield         | OpenFOAM: The Open Source CFD Toolbox
   \\    /   O peration     | Website:  https://openfoam.org
    \\  /    A nd           | Version:  dev
     \\/     M anipulation  |
\*---------------------------------------------------------------------------*/
FoamFile
{
    format      ascii;
    class       volScalarField;
    location    "0.2";
    object      beta;
}
// * * * * * * * * * * * * * * * * * * * * * * * * * * * * * * * * * * * * * //

dimensions      [0 0 0 0 0 0 0];

internalField   uniform 0;

boundaryField
{
    frontAndBack
    {
        type            empty;
    }
    inlet
    {
        type            calculated;
        value           uniform 0;
    }
    outlet
    {
        type            calculated;
        value           uniform 0;
    }
    substrate
    {
        type            calculated;
        value           nonuniform List<scalar> 
400
(
0.00276612
0.00290579
0.0030083
0.00310202
0.00319111
0.00327592
0.00335745
0.00343659
0.00351398
0.00359005
0.00366516
0.00373956
0.00381346
0.00388701
0.00396032
0.00403349
0.00410658
0.00417963
0.00425267
0.00432572
0.00439878
0.00447186
0.00454494
0.00461802
0.00469108
0.0047641
0.00483706
0.00490993
0.00498271
0.00505536
0.00512785
0.00520017
0.00527229
0.00534419
0.00541584
0.00548721
0.00555829
0.00562905
0.00569947
0.00576953
0.0058392
0.00590846
0.0059773
0.00604569
0.00611362
0.00618106
0.006248
0.00631443
0.00638031
0.00644565
0.00651042
0.00657461
0.00663821
0.0067012
0.00676357
0.00682531
0.0068864
0.00694685
0.00700663
0.00706574
0.00712416
0.0071819
0.00723895
0.00729529
0.00735093
0.00740585
0.00746005
0.00751353
0.00756628
0.0076183
0.00766959
0.00772014
0.00776996
0.00781904
0.00786737
0.00791497
0.00796184
0.00800796
0.00805334
0.00809799
0.0081419
0.00818508
0.00822754
0.00826926
0.00831026
0.00835054
0.00839011
0.00842896
0.00846711
0.00850455
0.0085413
0.00857735
0.00861271
0.0086474
0.00868141
0.00871475
0.00874743
0.00877945
0.00881083
0.00884156
0.00887166
0.00890113
0.00892998
0.00895821
0.00898585
0.00901288
0.00903932
0.00906519
0.00909048
0.0091152
0.00913937
0.00916299
0.00918607
0.00920861
0.00923063
0.00925214
0.00927313
0.00929363
0.00931364
0.00933316
0.00935222
0.0093708
0.00938893
0.00940661
0.00942385
0.00944065
0.00945704
0.009473
0.00948856
0.00950372
0.00951848
0.00953286
0.00954687
0.0095605
0.00957378
0.0095867
0.00959928
0.00961151
0.00962342
0.009635
0.00964627
0.00965722
0.00966788
0.00967824
0.00968831
0.00969809
0.0097076
0.00971685
0.00972583
0.00973455
0.00974302
0.00975125
0.00975925
0.00976701
0.00977454
0.00978185
0.00978895
0.00979583
0.00980252
0.009809
0.00981529
0.00982139
0.00982731
0.00983305
0.00983861
0.009844
0.00984923
0.0098543
0.00985921
0.00986397
0.00986858
0.00987305
0.00987738
0.00988157
0.00988563
0.00988957
0.00989337
0.00989706
0.00990063
0.00990408
0.00990743
0.00991066
0.00991379
0.00991682
0.00991975
0.00992259
0.00992533
0.00992798
0.00993055
0.00993303
0.00993542
0.00993774
0.00993998
0.00994215
0.00994424
0.00994626
0.00994822
0.00995011
0.00995193
0.00995369
0.00995539
0.00995704
0.00995862
0.00996016
0.00996163
0.00996306
0.00996444
0.00996577
0.00996706
0.00996829
0.00996949
0.00997064
0.00997176
0.00997283
0.00997386
0.00997486
0.00997582
0.00997675
0.00997765
0.00997851
0.00997934
0.00998014
0.00998091
0.00998166
0.00998237
0.00998307
0.00998373
0.00998437
0.00998499
0.00998558
0.00998616
0.00998671
0.00998724
0.00998775
0.00998824
0.00998871
0.00998917
0.0099896
0.00999003
0.00999043
0.00999082
0.0099912
0.00999156
0.0099919
0.00999224
0.00999256
0.00999287
0.00999316
0.00999345
0.00999372
0.00999398
0.00999423
0.00999448
0.00999471
0.00999493
0.00999515
0.00999535
0.00999555
0.00999574
0.00999592
0.0099961
0.00999627
0.00999643
0.00999658
0.00999673
0.00999687
0.00999701
0.00999714
0.00999727
0.00999739
0.0099975
0.00999761
0.00999772
0.00999782
0.00999792
0.00999801
0.0099981
0.00999819
0.00999827
0.00999835
0.00999842
0.00999849
0.00999856
0.00999863
0.00999869
0.00999875
0.00999881
0.00999886
0.00999892
0.00999897
0.00999901
0.00999906
0.0099991
0.00999915
0.00999919
0.00999923
0.00999926
0.0099993
0.00999933
0.00999936
0.00999939
0.00999942
0.00999945
0.00999948
0.0099995
0.00999953
0.00999955
0.00999957
0.00999959
0.00999961
0.00999963
0.00999965
0.00999967
0.00999968
0.0099997
0.00999971
0.00999973
0.00999974
0.00999976
0.00999977
0.00999978
0.00999979
0.0099998
0.00999981
0.00999982
0.00999983
0.00999984
0.00999985
0.00999986
0.00999986
0.00999987
0.00999988
0.00999988
0.00999989
0.0099999
0.0099999
0.00999991
0.00999991
0.00999992
0.00999992
0.00999992
0.00999993
0.00999993
0.00999994
0.00999994
0.00999994
0.00999995
0.00999995
0.00999995
0.00999995
0.00999996
0.00999996
0.00999996
0.00999996
0.00999997
0.00999997
0.00999997
0.00999997
0.00999997
0.00999997
0.00999998
0.00999998
0.00999998
0.00999998
0.00999998
0.00999998
0.00999998
0.00999998
0.00999998
0.00999999
0.00999999
0.00999999
0.00999999
0.00999999
0.00999999
0.00999999
0.00999999
0.00999999
0.00999999
0.00999999
0.00999999
0.00999999
0.00999999
0.00999999
0.00999999
0.00999999
0.00999999
0.01
0.01
0.01
0.01
0.01
0.01
0.01
0.01
0.01
0.01
0.01
0.01
0.01
)
;
    }
    Wall
    {
        type            calculated;
        value           nonuniform List<scalar> 
400
(
0.00276612
0.00290579
0.00300829
0.00310201
0.0031911
0.00327592
0.00335746
0.00343661
0.003514
0.00359008
0.00366519
0.00373959
0.00381349
0.00388703
0.00396035
0.00403352
0.0041066
0.00417965
0.00425269
0.00432574
0.0043988
0.00447187
0.00454495
0.00461803
0.00469109
0.0047641
0.00483706
0.00490994
0.00498271
0.00505536
0.00512785
0.00520017
0.00527229
0.00534418
0.00541583
0.0054872
0.00555828
0.00562904
0.00569946
0.00576951
0.00583918
0.00590845
0.00597728
0.00604568
0.0061136
0.00618104
0.00624799
0.00631441
0.00638029
0.00644563
0.0065104
0.00657459
0.00663819
0.00670118
0.00676355
0.00682529
0.00688638
0.00694682
0.0070066
0.00706571
0.00712414
0.00718188
0.00723892
0.00729527
0.0073509
0.00740582
0.00746002
0.0075135
0.00756625
0.00761827
0.00766956
0.00772011
0.00776993
0.00781901
0.00786735
0.00791495
0.00796181
0.00800793
0.00805331
0.00809796
0.00814188
0.00818506
0.00822751
0.00826924
0.00831024
0.00835052
0.00839008
0.00842894
0.00846708
0.00850453
0.00854127
0.00857732
0.00861269
0.00864738
0.00868139
0.00871473
0.00874741
0.00877943
0.00881081
0.00884154
0.00887164
0.00890111
0.00892996
0.00895819
0.00898582
0.00901286
0.0090393
0.00906517
0.00909046
0.00911518
0.00913935
0.00916297
0.00918605
0.00920859
0.00923061
0.00925212
0.00927312
0.00929361
0.00931362
0.00933315
0.0093522
0.00937078
0.00938891
0.00940659
0.00942383
0.00944064
0.00945702
0.00947299
0.00948854
0.0095037
0.00951847
0.00953285
0.00954685
0.00956049
0.00957377
0.00958669
0.00959926
0.0096115
0.00962341
0.00963499
0.00964626
0.00965721
0.00966787
0.00967823
0.0096883
0.00969808
0.00970759
0.00971684
0.00972582
0.00973454
0.00974302
0.00975125
0.00975924
0.009767
0.00977453
0.00978184
0.00978894
0.00979583
0.00980251
0.00980899
0.00981528
0.00982138
0.0098273
0.00983304
0.0098386
0.009844
0.00984923
0.00985429
0.00985921
0.00986397
0.00986858
0.00987305
0.00987737
0.00988157
0.00988563
0.00988956
0.00989337
0.00989706
0.00990062
0.00990408
0.00990742
0.00991066
0.00991379
0.00991682
0.00991975
0.00992258
0.00992533
0.00992798
0.00993054
0.00993302
0.00993542
0.00993774
0.00993998
0.00994215
0.00994424
0.00994626
0.00994821
0.0099501
0.00995193
0.00995369
0.00995539
0.00995703
0.00995862
0.00996015
0.00996163
0.00996306
0.00996444
0.00996577
0.00996705
0.00996829
0.00996949
0.00997064
0.00997175
0.00997283
0.00997386
0.00997486
0.00997582
0.00997675
0.00997765
0.00997851
0.00997934
0.00998014
0.00998091
0.00998166
0.00998237
0.00998306
0.00998373
0.00998437
0.00998499
0.00998558
0.00998615
0.00998671
0.00998724
0.00998775
0.00998824
0.00998871
0.00998917
0.0099896
0.00999003
0.00999043
0.00999082
0.0099912
0.00999156
0.0099919
0.00999224
0.00999256
0.00999286
0.00999316
0.00999345
0.00999372
0.00999398
0.00999423
0.00999448
0.00999471
0.00999493
0.00999515
0.00999535
0.00999555
0.00999574
0.00999592
0.0099961
0.00999627
0.00999643
0.00999658
0.00999673
0.00999687
0.00999701
0.00999714
0.00999727
0.00999739
0.0099975
0.00999761
0.00999772
0.00999782
0.00999792
0.00999801
0.0099981
0.00999819
0.00999827
0.00999835
0.00999842
0.00999849
0.00999856
0.00999863
0.00999869
0.00999875
0.00999881
0.00999886
0.00999892
0.00999897
0.00999901
0.00999906
0.0099991
0.00999915
0.00999919
0.00999923
0.00999926
0.0099993
0.00999933
0.00999936
0.00999939
0.00999942
0.00999945
0.00999948
0.0099995
0.00999953
0.00999955
0.00999957
0.00999959
0.00999961
0.00999963
0.00999965
0.00999967
0.00999968
0.0099997
0.00999971
0.00999973
0.00999974
0.00999976
0.00999977
0.00999978
0.00999979
0.0099998
0.00999981
0.00999982
0.00999983
0.00999984
0.00999985
0.00999986
0.00999986
0.00999987
0.00999988
0.00999988
0.00999989
0.0099999
0.0099999
0.00999991
0.00999991
0.00999992
0.00999992
0.00999992
0.00999993
0.00999993
0.00999994
0.00999994
0.00999994
0.00999995
0.00999995
0.00999995
0.00999995
0.00999996
0.00999996
0.00999996
0.00999996
0.00999997
0.00999997
0.00999997
0.00999997
0.00999997
0.00999997
0.00999998
0.00999998
0.00999998
0.00999998
0.00999998
0.00999998
0.00999998
0.00999998
0.00999998
0.00999999
0.00999999
0.00999999
0.00999999
0.00999999
0.00999999
0.00999999
0.00999999
0.00999999
0.00999999
0.00999999
0.00999999
0.00999999
0.00999999
0.00999999
0.00999999
0.00999999
0.00999999
0.01
0.01
0.01
0.01
0.01
0.01
0.01
0.01
0.01
0.01
0.01
0.01
0.01
)
;
    }
}


// ************************************************************************* //
