/*--------------------------------*- C++ -*----------------------------------*\
  =========                 |
  \\      /  F ield         | OpenFOAM: The Open Source CFD Toolbox
   \\    /   O peration     | Website:  https://openfoam.org
    \\  /    A nd           | Version:  dev
     \\/     M anipulation  |
\*---------------------------------------------------------------------------*/
FoamFile
{
    format      ascii;
    class       volScalarField;
    location    "0.2";
    object      cov;
}
// * * * * * * * * * * * * * * * * * * * * * * * * * * * * * * * * * * * * * //

dimensions      [0 0 0 0 0 0 0];

internalField   uniform 0;

boundaryField
{
    frontAndBack
    {
        type            empty;
    }
    inlet
    {
        type            calculated;
        value           uniform 0;
    }
    outlet
    {
        type            calculated;
        value           uniform 0;
    }
    substrate
    {
        type            calculated;
        value           nonuniform List<scalar> 
400
(
0.723388
0.709421
0.69917
0.689798
0.680889
0.672408
0.664255
0.656341
0.648602
0.640995
0.633484
0.626044
0.618654
0.611299
0.603968
0.596651
0.589342
0.582037
0.574733
0.567428
0.560122
0.552814
0.545506
0.538198
0.530892
0.52359
0.516294
0.509007
0.501729
0.494464
0.487215
0.479983
0.472771
0.465581
0.458416
0.451279
0.444171
0.437095
0.430053
0.423047
0.41608
0.409154
0.40227
0.395431
0.388638
0.381894
0.3752
0.368557
0.361969
0.355435
0.348958
0.342539
0.336179
0.32988
0.323643
0.317469
0.31136
0.305315
0.299337
0.293426
0.287584
0.28181
0.276105
0.270471
0.264907
0.259415
0.253995
0.248647
0.243372
0.23817
0.233041
0.227986
0.223004
0.218096
0.213263
0.208503
0.203816
0.199204
0.194666
0.190201
0.18581
0.181492
0.177246
0.173074
0.168974
0.164946
0.160989
0.157104
0.153289
0.149545
0.14587
0.142265
0.138729
0.13526
0.131859
0.128525
0.125257
0.122055
0.118917
0.115844
0.112834
0.109887
0.107002
0.104179
0.101415
0.098712
0.0960675
0.0934812
0.0909522
0.0884798
0.086063
0.0837012
0.0813935
0.079139
0.0769369
0.0747865
0.0726867
0.0706369
0.0686361
0.0666836
0.0647785
0.0629199
0.061107
0.0593391
0.0576152
0.0559346
0.0542964
0.0526999
0.0511441
0.0496284
0.0481519
0.0467138
0.0453133
0.0439497
0.0426222
0.0413301
0.0400725
0.0388487
0.0376581
0.0364998
0.0353732
0.0342776
0.0332122
0.0321764
0.0311694
0.0301907
0.0292395
0.0283152
0.0274172
0.0265449
0.0256975
0.0248746
0.0240754
0.0232995
0.0225462
0.021815
0.0211053
0.0204166
0.0197484
0.0191
0.018471
0.0178609
0.0172692
0.0166955
0.0161391
0.0155997
0.0150768
0.01457
0.0140788
0.0136029
0.0131417
0.0126948
0.012262
0.0118427
0.0114367
0.0110434
0.0106627
0.010294
0.00993718
0.00959174
0.0092574
0.00893384
0.00862075
0.00831782
0.00802474
0.00774124
0.00746702
0.00720182
0.00694535
0.00669737
0.0064576
0.00622582
0.00600176
0.00578521
0.00557592
0.00537367
0.00517826
0.00498946
0.00480707
0.00463089
0.00446073
0.0042964
0.00413771
0.00398449
0.00383657
0.00369376
0.00355592
0.00342289
0.00329449
0.0031706
0.00305106
0.00293573
0.00282448
0.00271717
0.00261366
0.00251385
0.0024176
0.0023248
0.00223533
0.00214908
0.00206595
0.00198582
0.00190861
0.00183421
0.00176252
0.00169346
0.00162693
0.00156285
0.00150113
0.0014417
0.00138447
0.00132937
0.00127633
0.00122527
0.00117613
0.00112883
0.00108332
0.00103953
0.0009974
0.000956871
0.000917887
0.000880393
0.000844336
0.000809665
0.00077633
0.000744283
0.000713478
0.00068387
0.000655415
0.000628072
0.000601801
0.000576561
0.000552316
0.000529028
0.000506663
0.000485186
0.000464564
0.000444766
0.000425761
0.000407519
0.000390012
0.000373212
0.000357093
0.000341628
0.000326793
0.000312563
0.000298917
0.000285831
0.000273284
0.000261255
0.000249724
0.000238673
0.000228082
0.000217933
0.000208209
0.000198894
0.000189971
0.000181425
0.000173242
0.000165406
0.000157904
0.000150722
0.000143849
0.000137271
0.000130976
0.000124954
0.000119192
0.000113682
0.000108411
0.000103371
9.85521e-05
9.39452e-05
8.95414e-05
8.53325e-05
8.13103e-05
7.74671e-05
7.37955e-05
7.02882e-05
6.69383e-05
6.37393e-05
6.06847e-05
5.77684e-05
5.49846e-05
5.23276e-05
4.9792e-05
4.73725e-05
4.50643e-05
4.28624e-05
4.07623e-05
3.87595e-05
3.68499e-05
3.50293e-05
3.32939e-05
3.16399e-05
3.00636e-05
2.85618e-05
2.7131e-05
2.57681e-05
2.44701e-05
2.32341e-05
2.20572e-05
2.09369e-05
1.98705e-05
1.88556e-05
1.78899e-05
1.69711e-05
1.60971e-05
1.52658e-05
1.44753e-05
1.37236e-05
1.3009e-05
1.23297e-05
1.16841e-05
1.10706e-05
1.04877e-05
9.93404e-06
9.40812e-06
8.90867e-06
8.43444e-06
7.98421e-06
7.55684e-06
7.15123e-06
6.76634e-06
6.40116e-06
6.05474e-06
5.72618e-06
5.41458e-06
5.11914e-06
4.83905e-06
4.57357e-06
4.32196e-06
4.08355e-06
3.85767e-06
3.6437e-06
3.44106e-06
3.24916e-06
3.06747e-06
2.89548e-06
2.7327e-06
2.57865e-06
2.4329e-06
2.29501e-06
2.1646e-06
2.04127e-06
1.92466e-06
1.81443e-06
1.71025e-06
1.6118e-06
1.51878e-06
1.43092e-06
1.34795e-06
1.26962e-06
1.19567e-06
1.12589e-06
1.06007e-06
9.9799e-07
9.39468e-07
8.84323e-07
8.32386e-07
7.83497e-07
7.3751e-07
6.94288e-07
6.53704e-07
6.15644e-07
5.80003e-07
5.46687e-07
5.15616e-07
4.86721e-07
4.59945e-07
4.35247e-07
4.12598e-07
3.91988e-07
3.7342e-07
3.56917e-07
3.42521e-07
3.3029e-07
3.20305e-07
3.12658e-07
3.07456e-07
3.04808e-07
)
;
    }
    Wall
    {
        type            calculated;
        value           nonuniform List<scalar> 
400
(
0.723388
0.709421
0.699171
0.689799
0.68089
0.672408
0.664254
0.656339
0.6486
0.640992
0.633481
0.626041
0.618651
0.611297
0.603965
0.596648
0.58934
0.582035
0.574731
0.567426
0.56012
0.552813
0.545505
0.538197
0.530891
0.52359
0.516294
0.509006
0.501729
0.494464
0.487215
0.479983
0.472771
0.465582
0.458417
0.45128
0.444172
0.437096
0.430054
0.423049
0.416082
0.409155
0.402272
0.395432
0.38864
0.381896
0.375201
0.368559
0.361971
0.355437
0.34896
0.342541
0.336181
0.329882
0.323645
0.317471
0.311362
0.305318
0.29934
0.293429
0.287586
0.281812
0.276108
0.270473
0.26491
0.259418
0.253998
0.24865
0.243375
0.238173
0.233044
0.227989
0.223007
0.218099
0.213265
0.208505
0.203819
0.199207
0.194669
0.190204
0.185812
0.181494
0.177249
0.173076
0.168976
0.164948
0.160992
0.157106
0.153292
0.149547
0.145873
0.142268
0.138731
0.135262
0.131861
0.128527
0.125259
0.122057
0.118919
0.115846
0.112836
0.109889
0.107004
0.104181
0.101418
0.0987141
0.0960696
0.0934832
0.0909542
0.0884817
0.086065
0.0837031
0.0813954
0.0791408
0.0769388
0.0747882
0.0726885
0.0706386
0.0686378
0.0666853
0.0647801
0.0629215
0.0611086
0.0593407
0.0576168
0.0559361
0.0542979
0.0527014
0.0511456
0.0496298
0.0481533
0.0467151
0.0453146
0.043951
0.0426235
0.0413313
0.0400737
0.0388499
0.0376593
0.036501
0.0353744
0.0342787
0.0332133
0.0321774
0.0311705
0.0301917
0.0292405
0.0283162
0.0274182
0.0265458
0.0256984
0.0248755
0.0240763
0.0233004
0.0225471
0.0218158
0.0211061
0.0204174
0.0197491
0.0191007
0.0184717
0.0178616
0.0172699
0.0166961
0.0161397
0.0156003
0.0150774
0.0145706
0.0140794
0.0136034
0.0131422
0.0126954
0.0122625
0.0118432
0.0114372
0.0110439
0.0106632
0.0102945
0.00993762
0.00959217
0.00925782
0.00893425
0.00862114
0.0083182
0.00802511
0.0077416
0.00746737
0.00720216
0.00694568
0.00669769
0.00645791
0.00622612
0.00600205
0.00578549
0.00557619
0.00537394
0.00517851
0.00498971
0.00480731
0.00463113
0.00446096
0.00429662
0.00413793
0.0039847
0.00383677
0.00369396
0.00355611
0.00342307
0.00329467
0.00317077
0.00305123
0.00293589
0.00282463
0.00271732
0.00261381
0.00251399
0.00241774
0.00232493
0.00223545
0.0021492
0.00206607
0.00198594
0.00190872
0.00183431
0.00176262
0.00169356
0.00162702
0.00156294
0.00150122
0.00144179
0.00138456
0.00132946
0.00127641
0.00122535
0.0011762
0.0011289
0.00108339
0.0010396
0.000997464
0.000956932
0.000917946
0.00088045
0.000844391
0.000809718
0.000776381
0.000744332
0.000713526
0.000683916
0.00065546
0.000628115
0.000601842
0.000576601
0.000552354
0.000529065
0.000506698
0.00048522
0.000464597
0.000444798
0.000425792
0.000407549
0.000390041
0.00037324
0.000357119
0.000341653
0.000326817
0.000312587
0.000298939
0.000285853
0.000273305
0.000261275
0.000249744
0.000238691
0.000228099
0.00021795
0.000208225
0.00019891
0.000189986
0.00018144
0.000173256
0.000165419
0.000157917
0.000150735
0.000143861
0.000137282
0.000130987
0.000124964
0.000119203
0.000113691
0.00010842
0.00010338
9.85607e-05
9.39534e-05
8.95493e-05
8.53401e-05
8.13176e-05
7.74741e-05
7.38022e-05
7.02946e-05
6.69445e-05
6.37452e-05
6.06903e-05
5.77738e-05
5.49898e-05
5.23326e-05
4.97967e-05
4.73771e-05
4.50686e-05
4.28666e-05
4.07663e-05
3.87634e-05
3.68536e-05
3.50328e-05
3.32973e-05
3.16431e-05
3.00667e-05
2.85647e-05
2.71338e-05
2.57708e-05
2.44727e-05
2.32365e-05
2.20596e-05
2.09391e-05
1.98726e-05
1.88577e-05
1.78919e-05
1.6973e-05
1.60989e-05
1.52675e-05
1.44769e-05
1.37251e-05
1.30104e-05
1.23311e-05
1.16854e-05
1.10719e-05
1.0489e-05
9.93521e-06
9.40924e-06
8.90974e-06
8.43545e-06
7.98517e-06
7.55776e-06
7.15211e-06
6.76718e-06
6.40196e-06
6.0555e-06
5.7269e-06
5.41527e-06
5.1198e-06
4.83968e-06
4.57416e-06
4.32252e-06
4.08408e-06
3.85818e-06
3.64419e-06
3.44152e-06
3.2496e-06
3.06789e-06
2.89588e-06
2.73307e-06
2.579e-06
2.43323e-06
2.29533e-06
2.1649e-06
2.04156e-06
1.92494e-06
1.81469e-06
1.7105e-06
1.61203e-06
1.51901e-06
1.43114e-06
1.34815e-06
1.26981e-06
1.19585e-06
1.12606e-06
1.06023e-06
9.98142e-07
9.39613e-07
8.8446e-07
8.32515e-07
7.8362e-07
7.37626e-07
6.94398e-07
6.53808e-07
6.15743e-07
5.80096e-07
5.46775e-07
5.157e-07
4.868e-07
4.60021e-07
4.35319e-07
4.12667e-07
3.92053e-07
3.73483e-07
3.56978e-07
3.4258e-07
3.30348e-07
3.20361e-07
3.1271e-07
3.075e-07
3.04846e-07
)
;
    }
}


// ************************************************************************* //
