/*--------------------------------*- C++ -*----------------------------------*\
  =========                 |
  \\      /  F ield         | OpenFOAM: The Open Source CFD Toolbox
   \\    /   O peration     | Website:  https://openfoam.org
    \\  /    A nd           | Version:  dev
     \\/     M anipulation  |
\*---------------------------------------------------------------------------*/
FoamFile
{
    format      ascii;
    class       volScalarField;
    location    "0.2";
    object      Exp1;
}
// * * * * * * * * * * * * * * * * * * * * * * * * * * * * * * * * * * * * * //

dimensions      [0 0 0 0 0 0 0];

internalField   uniform 0;

boundaryField
{
    frontAndBack
    {
        type            empty;
    }
    inlet
    {
        type            calculated;
        value           uniform 0;
    }
    outlet
    {
        type            calculated;
        value           uniform 0;
    }
    substrate
    {
        type            calculated;
        value           nonuniform List<scalar> 
400
(
9.78349e-06
3.11482e-05
5.46136e-05
8.00489e-05
0.000107435
0.000136826
0.000168271
0.000201815
0.000237512
0.000275419
0.000315592
0.000358089
0.000402962
0.000450264
0.00050004
0.000552331
0.000607172
0.000664589
0.000724606
0.000787235
0.000852484
0.000920352
0.000990832
0.00106391
0.00113956
0.00121775
0.00129845
0.0013816
0.00146717
0.00155508
0.00164528
0.00173768
0.00183221
0.00192879
0.0020273
0.00212767
0.00222978
0.00233351
0.00243876
0.00254539
0.00265328
0.0027623
0.00287231
0.00298316
0.00309472
0.00320684
0.00331936
0.00343213
0.00354499
0.0036578
0.00377039
0.00388259
0.00399426
0.00410524
0.00421536
0.00432447
0.00443241
0.00453902
0.00464417
0.00474769
0.00484945
0.00494929
0.00504709
0.0051427
0.00523599
0.00532685
0.00541515
0.00550078
0.00558362
0.00566358
0.00574056
0.00581446
0.0058852
0.0059527
0.0060169
0.00607772
0.00613512
0.00618903
0.00623941
0.00628623
0.00632946
0.00636906
0.00640503
0.00643736
0.00646603
0.00649106
0.00651245
0.00653021
0.00654437
0.00655495
0.00656198
0.00656551
0.00656558
0.00656226
0.00655555
0.00654553
0.00653224
0.00651577
0.00649618
0.00647355
0.00644794
0.00641944
0.00638814
0.0063541
0.00631742
0.00627819
0.0062365
0.00619242
0.00614607
0.00609752
0.00604688
0.00599423
0.00593968
0.00588331
0.00582521
0.00576549
0.00570424
0.00564154
0.0055775
0.00551219
0.00544572
0.00537817
0.00530962
0.00524017
0.00516989
0.00509887
0.0050272
0.00495494
0.00488218
0.00480899
0.00473544
0.00466162
0.00458757
0.00451338
0.0044391
0.0043648
0.00429054
0.00421637
0.00414236
0.00406855
0.00399499
0.00392174
0.00384884
0.00377634
0.00370428
0.00363269
0.00356162
0.0034911
0.00342117
0.00335185
0.00328319
0.0032152
0.00314791
0.00308136
0.00301555
0.00295051
0.00288626
0.00282282
0.00276021
0.00269843
0.00263751
0.00257744
0.00251826
0.00245995
0.00240254
0.00234602
0.0022904
0.00223569
0.00218189
0.00212901
0.00207703
0.00202597
0.00197582
0.00192658
0.00187825
0.00183082
0.00178429
0.00173866
0.00169393
0.00165008
0.0016071
0.001565
0.00152377
0.00148339
0.00144386
0.00140518
0.00136732
0.00133029
0.00129407
0.00125865
0.00122402
0.00119017
0.0011571
0.00112478
0.00109322
0.00106239
0.00103229
0.00100291
0.000974224
0.000946235
0.000918926
0.000892286
0.000866304
0.000840967
0.000816264
0.000792183
0.000768713
0.000745842
0.000723558
0.00070185
0.000680706
0.000660116
0.000640068
0.00062055
0.000601552
0.000583062
0.00056507
0.000547565
0.000530537
0.000513974
0.000497867
0.000482205
0.000466978
0.000452176
0.00043779
0.000423809
0.000410224
0.000397026
0.000384206
0.000371754
0.000359661
0.000347919
0.000336519
0.000325453
0.000314711
0.000304287
0.000294172
0.000284358
0.000274838
0.000265603
0.000256647
0.000247962
0.000239541
0.000231378
0.000223464
0.000215795
0.000208362
0.00020116
0.000194183
0.000187424
0.000180877
0.000174536
0.000168397
0.000162452
0.000156698
0.000151127
0.000145736
0.000140519
0.000135471
0.000130588
0.000125864
0.000121295
0.000116876
0.000112603
0.000108473
0.000104479
0.00010062
9.68897e-05
9.32853e-05
8.98029e-05
8.64387e-05
8.31892e-05
8.00509e-05
7.70204e-05
7.40944e-05
7.12697e-05
6.85432e-05
6.59118e-05
6.33725e-05
6.09225e-05
5.8559e-05
5.62791e-05
5.40804e-05
5.19602e-05
4.99159e-05
4.79452e-05
4.60456e-05
4.42149e-05
4.24508e-05
4.07512e-05
3.91139e-05
3.75368e-05
3.60181e-05
3.45557e-05
3.31477e-05
3.17924e-05
3.04879e-05
2.92326e-05
2.80248e-05
2.68628e-05
2.57451e-05
2.46701e-05
2.36365e-05
2.26427e-05
2.16873e-05
2.07691e-05
1.98867e-05
1.90388e-05
1.82242e-05
1.74418e-05
1.66904e-05
1.59688e-05
1.52761e-05
1.4611e-05
1.39728e-05
1.33603e-05
1.27726e-05
1.22088e-05
1.16681e-05
1.11495e-05
1.06523e-05
1.01755e-05
9.7186e-06
9.28068e-06
8.86105e-06
8.45902e-06
8.07392e-06
7.70509e-06
7.3519e-06
7.01375e-06
6.69005e-06
6.38024e-06
6.08377e-06
5.80012e-06
5.52877e-06
5.26924e-06
5.02105e-06
4.78375e-06
4.55691e-06
4.34009e-06
4.1329e-06
3.93493e-06
3.74581e-06
3.56517e-06
3.39268e-06
3.22797e-06
3.07075e-06
2.92068e-06
2.77747e-06
2.64083e-06
2.51048e-06
2.38615e-06
2.2676e-06
2.15456e-06
2.0468e-06
1.9441e-06
1.84623e-06
1.75299e-06
1.66416e-06
1.57957e-06
1.49902e-06
1.42233e-06
1.34933e-06
1.27986e-06
1.21377e-06
1.15089e-06
1.09109e-06
1.03422e-06
9.80161e-07
9.28781e-07
8.7996e-07
8.33582e-07
7.89539e-07
7.47725e-07
7.08042e-07
6.70395e-07
6.34695e-07
6.00858e-07
5.68805e-07
5.38462e-07
5.0976e-07
4.82635e-07
4.57029e-07
4.32889e-07
4.10167e-07
3.88823e-07
3.68823e-07
3.50137e-07
3.32748e-07
3.16642e-07
3.01817e-07
2.88277e-07
2.76041e-07
2.65134e-07
2.55595e-07
2.47474e-07
2.40831e-07
2.35737e-07
2.32268e-07
2.30502e-07
)
;
    }
    Wall
    {
        type            calculated;
        value           nonuniform List<scalar> 
400
(
9.78311e-06
3.11473e-05
5.46125e-05
8.00475e-05
0.000107433
0.000136823
0.000168266
0.000201809
0.000237504
0.000275408
0.000315579
0.000358072
0.000402943
0.000450241
0.000500013
0.0005523
0.000607136
0.000664548
0.00072456
0.000787184
0.000852428
0.00092029
0.000990764
0.00106383
0.00113948
0.00121766
0.00129835
0.0013815
0.00146706
0.00155497
0.00164516
0.00173756
0.00183208
0.00192865
0.00202716
0.00212752
0.00222962
0.00233334
0.00243858
0.00254521
0.00265309
0.0027621
0.0028721
0.00298295
0.0030945
0.00320661
0.00331912
0.00343189
0.00354474
0.00365754
0.00377012
0.00388232
0.00399399
0.00410495
0.00421507
0.00432417
0.0044321
0.00453872
0.00464386
0.00474737
0.00484912
0.00494896
0.00504675
0.00514236
0.00523565
0.00532651
0.00541481
0.00550043
0.00558327
0.00566323
0.0057402
0.0058141
0.00588484
0.00595234
0.00601654
0.00607736
0.00613476
0.00618867
0.00623905
0.00628587
0.0063291
0.00636871
0.00640468
0.00643701
0.00646568
0.00649071
0.0065121
0.00652987
0.00654403
0.00655462
0.00656166
0.00656519
0.00656526
0.00656194
0.00655524
0.00654521
0.00653193
0.00651547
0.00649588
0.00647325
0.00644765
0.00641916
0.00638786
0.00635383
0.00631716
0.00627794
0.00623625
0.00619218
0.00614583
0.0060973
0.00604666
0.00599402
0.00593947
0.0058831
0.00582502
0.0057653
0.00570406
0.00564137
0.00557733
0.00551203
0.00544556
0.00537801
0.00530947
0.00524002
0.00516975
0.00509874
0.00502707
0.00495482
0.00488206
0.00480888
0.00473534
0.00466152
0.00458748
0.00451329
0.00443902
0.00436472
0.00429046
0.0042163
0.00414229
0.00406849
0.00399494
0.00392169
0.00384879
0.00377629
0.00370423
0.00363265
0.00356158
0.00349106
0.00342114
0.00335182
0.00328316
0.00321518
0.00314789
0.00308134
0.00301553
0.00295049
0.00288625
0.00282281
0.0027602
0.00269842
0.0026375
0.00257744
0.00251825
0.00245995
0.00240254
0.00234602
0.00229041
0.0022357
0.0021819
0.00212901
0.00207704
0.00202598
0.00197583
0.00192659
0.00187826
0.00183083
0.00178431
0.00173868
0.00169394
0.00165009
0.00160712
0.00156502
0.00152378
0.00148341
0.00144388
0.00140519
0.00136734
0.0013303
0.00129408
0.00125866
0.00122403
0.00119019
0.00115711
0.0011248
0.00109323
0.00106241
0.00103231
0.00100292
0.00097424
0.000946251
0.000918942
0.000892302
0.00086632
0.000840983
0.00081628
0.000792199
0.000768728
0.000745857
0.000723573
0.000701865
0.000680721
0.000660131
0.000640082
0.000620564
0.000601566
0.000583076
0.000565084
0.000547579
0.00053055
0.000513987
0.00049788
0.000482218
0.000466991
0.000452189
0.000437802
0.000423821
0.000410236
0.000397038
0.000384217
0.000371765
0.000359672
0.00034793
0.000336529
0.000325463
0.000314721
0.000304297
0.000294182
0.000284368
0.000274847
0.000265612
0.000256656
0.000247971
0.00023955
0.000231386
0.000223472
0.000215803
0.00020837
0.000201168
0.00019419
0.000187431
0.000180884
0.000174543
0.000168403
0.000162459
0.000156704
0.000151134
0.000145742
0.000140525
0.000135477
0.000130593
0.000125869
0.0001213
0.000116881
0.000112608
0.000108478
0.000104484
0.000100624
9.68942e-05
9.32897e-05
8.98072e-05
8.64429e-05
8.31932e-05
8.00548e-05
7.70242e-05
7.40981e-05
7.12733e-05
6.85467e-05
6.59152e-05
6.33758e-05
6.09257e-05
5.85621e-05
5.62822e-05
5.40833e-05
5.1963e-05
4.99186e-05
4.79478e-05
4.60482e-05
4.42174e-05
4.24533e-05
4.07535e-05
3.91162e-05
3.75391e-05
3.60202e-05
3.45577e-05
3.31497e-05
3.17943e-05
3.04898e-05
2.92344e-05
2.80265e-05
2.68645e-05
2.57467e-05
2.46718e-05
2.3638e-05
2.26442e-05
2.16888e-05
2.07705e-05
1.9888e-05
1.90401e-05
1.82255e-05
1.7443e-05
1.66916e-05
1.597e-05
1.52772e-05
1.46121e-05
1.39738e-05
1.33613e-05
1.27736e-05
1.22098e-05
1.1669e-05
1.11504e-05
1.06531e-05
1.01763e-05
9.71938e-06
9.28143e-06
8.86177e-06
8.45972e-06
8.07458e-06
7.70573e-06
7.35252e-06
7.01434e-06
6.69062e-06
6.38079e-06
6.0843e-06
5.80063e-06
5.52926e-06
5.26971e-06
5.0215e-06
4.78419e-06
4.55733e-06
4.3405e-06
4.13328e-06
3.9353e-06
3.74616e-06
3.56552e-06
3.393e-06
3.22829e-06
3.07105e-06
2.92097e-06
2.77774e-06
2.64109e-06
2.51073e-06
2.3864e-06
2.26783e-06
2.15478e-06
2.04702e-06
1.9443e-06
1.84643e-06
1.75317e-06
1.66434e-06
1.57974e-06
1.49918e-06
1.42249e-06
1.34948e-06
1.28001e-06
1.2139e-06
1.15102e-06
1.09121e-06
1.03434e-06
9.80276e-07
9.28891e-07
8.80065e-07
8.33682e-07
7.89634e-07
7.47816e-07
7.08129e-07
6.70478e-07
6.34774e-07
6.00933e-07
5.68877e-07
5.38531e-07
5.09825e-07
4.82697e-07
4.57088e-07
4.32945e-07
4.10221e-07
3.88875e-07
3.68872e-07
3.50184e-07
3.32793e-07
3.16685e-07
3.01858e-07
2.88317e-07
2.76079e-07
2.65171e-07
2.55631e-07
2.47509e-07
2.40866e-07
2.3577e-07
2.32296e-07
2.30525e-07
)
;
    }
}


// ************************************************************************* //
