/*--------------------------------*- C++ -*----------------------------------*\
  =========                 |
  \\      /  F ield         | OpenFOAM: The Open Source CFD Toolbox
   \\    /   O peration     | Website:  https://openfoam.org
    \\  /    A nd           | Version:  dev
     \\/     M anipulation  |
\*---------------------------------------------------------------------------*/
FoamFile
{
    format      ascii;
    class       volScalarField;
    location    "0.2";
    object      N1;
}
// * * * * * * * * * * * * * * * * * * * * * * * * * * * * * * * * * * * * * //

dimensions      [0 0 0 0 0 0 0];

internalField   nonuniform List<scalar> 
8000
(
7.42809e-05
0.000236551
0.000414832
0.000608135
0.000816318
0.0010398
0.00127895
0.00153412
0.00180572
0.0020942
0.00239998
0.00272352
0.00306522
0.00342549
0.00380467
0.00420308
0.004621
0.00505865
0.0055162
0.00599376
0.00649139
0.0070091
0.00754684
0.00810449
0.00868189
0.00927881
0.00989498
0.0105301
0.0111837
0.0118553
0.0125446
0.0132508
0.0139735
0.0147119
0.0154653
0.016233
0.0170142
0.017808
0.0186135
0.0194298
0.0202559
0.0210907
0.0219334
0.0227826
0.0236375
0.0244968
0.0253593
0.026224
0.0270895
0.0279548
0.0288186
0.0296796
0.0305367
0.0313886
0.0322342
0.0330721
0.0339013
0.0347205
0.0355286
0.0363244
0.0371067
0.0378746
0.0386269
0.0393626
0.0400806
0.0407801
0.0414601
0.0421197
0.042758
0.0433743
0.0439679
0.0445379
0.0450837
0.0456048
0.0461006
0.0465706
0.0470143
0.0474313
0.0478212
0.0481839
0.048519
0.0488264
0.0491058
0.0493573
0.0495808
0.0497762
0.0499437
0.0500834
0.0501954
0.0502799
0.0503371
0.0503674
0.0503711
0.0503487
0.0503003
0.0502263
0.0501273
0.0500037
0.0498562
0.0496851
0.0494912
0.0492751
0.0490373
0.0487785
0.0484993
0.0482004
0.0478825
0.0475463
0.0471925
0.0468218
0.0464349
0.0460326
0.0456155
0.0451844
0.0447399
0.0442829
0.0438141
0.0433341
0.0428437
0.0423435
0.0418343
0.0413167
0.0407914
0.0402591
0.0397204
0.0391759
0.0386263
0.0380722
0.0375142
0.0369528
0.0363886
0.0358222
0.0352541
0.0346848
0.0341148
0.0335445
0.0329745
0.0324052
0.0318371
0.0312704
0.0307057
0.0301433
0.0295835
0.0290268
0.0284733
0.0279236
0.0273777
0.0268361
0.0262989
0.0257665
0.025239
0.0247168
0.0241998
0.0236885
0.0231829
0.0226832
0.0221895
0.0217021
0.0212209
0.0207462
0.020278
0.0198165
0.0193616
0.0189135
0.0184723
0.0180379
0.0176105
0.01719
0.0167765
0.0163699
0.0159704
0.0155779
0.0151924
0.0148139
0.0144424
0.0140778
0.0137201
0.0133694
0.0130255
0.0126883
0.012358
0.0120343
0.0117173
0.0114069
0.011103
0.0108055
0.0105145
0.0102297
0.00995124
0.00967891
0.00941267
0.00915243
0.00889812
0.00864966
0.00840695
0.00816992
0.00793847
0.00771252
0.00749197
0.00727675
0.00706676
0.00686192
0.00666212
0.00646729
0.00627734
0.00609216
0.00591168
0.00573581
0.00556445
0.00539752
0.00523493
0.00507659
0.00492242
0.00477233
0.00462623
0.00448404
0.00434568
0.00421107
0.00408012
0.00395275
0.00382888
0.00370844
0.00359134
0.00347751
0.00336687
0.00325935
0.00315488
0.00305339
0.00295479
0.00285903
0.00276603
0.00267573
0.00258806
0.00250295
0.00242035
0.00234018
0.00226239
0.00218692
0.0021137
0.00204268
0.0019738
0.00190701
0.00184225
0.00177947
0.00171861
0.00165962
0.00160246
0.00154707
0.00149341
0.00144143
0.00139108
0.00134232
0.0012951
0.00124938
0.00120513
0.00116229
0.00112083
0.0010807
0.00104188
0.00100432
0.000967992
0.000932852
0.00089887
0.000866011
0.000834242
0.000803531
0.000773848
0.00074516
0.00071744
0.000690657
0.000664784
0.000639793
0.000615657
0.00059235
0.000569847
0.000548123
0.000527153
0.000506916
0.000487387
0.000468544
0.000450367
0.000432833
0.000415923
0.000399617
0.000383895
0.000368738
0.000354129
0.000340049
0.000326482
0.000313411
0.000300818
0.00028869
0.000277009
0.000265762
0.000254934
0.00024451
0.000234478
0.000224823
0.000215534
0.000206597
0.000198001
0.000189734
0.000181784
0.000174141
0.000166794
0.000159732
0.000152945
0.000146424
0.00014016
0.000134142
0.000128363
0.000122814
0.000117486
0.000112371
0.000107463
0.000102752
9.82321e-05
9.38962e-05
8.97374e-05
8.57491e-05
8.19248e-05
7.82585e-05
7.47443e-05
7.13763e-05
6.8149e-05
6.5057e-05
6.20953e-05
5.92586e-05
5.65423e-05
5.39417e-05
5.14522e-05
4.90695e-05
4.67893e-05
4.46078e-05
4.25209e-05
4.05249e-05
3.86161e-05
3.67911e-05
3.50465e-05
3.3379e-05
3.17855e-05
3.02629e-05
2.88084e-05
2.74192e-05
2.60925e-05
2.48259e-05
2.36166e-05
2.24625e-05
2.13611e-05
2.03102e-05
1.93077e-05
1.83515e-05
1.74397e-05
1.65704e-05
1.57416e-05
1.49518e-05
1.41991e-05
1.3482e-05
1.27988e-05
1.21482e-05
1.15287e-05
1.09389e-05
1.03775e-05
9.84324e-06
9.33489e-06
8.8513e-06
8.39137e-06
7.95403e-06
7.53827e-06
7.14311e-06
6.76764e-06
6.41096e-06
6.07223e-06
5.75064e-06
5.44544e-06
5.15591e-06
4.88134e-06
4.62111e-06
4.3746e-06
4.14123e-06
3.92049e-06
3.71188e-06
3.51494e-06
3.32928e-06
3.15453e-06
2.99038e-06
2.83656e-06
2.69285e-06
2.55911e-06
2.43525e-06
2.32123e-06
2.2171e-06
2.12299e-06
2.0391e-06
1.96574e-06
1.90328e-06
1.85219e-06
1.81302e-06
1.78634e-06
1.77275e-06
7.27755e-05
0.000233212
0.000410022
0.000602712
0.00081099
0.00103503
0.00127512
0.00153157
0.0018048
0.00209523
0.00240331
0.0027295
0.00307422
0.00343789
0.00382088
0.00422354
0.00464614
0.00508894
0.00555211
0.0060358
0.00654007
0.00706496
0.00761042
0.00817635
0.00876262
0.009369
0.00999524
0.010641
0.0113059
0.0119895
0.0126913
0.0134108
0.0141474
0.0149003
0.0156689
0.0164524
0.0172501
0.018061
0.0188843
0.0197189
0.020564
0.0214185
0.0222813
0.0231513
0.0240274
0.0249085
0.0257933
0.0266808
0.0275695
0.0284584
0.0293462
0.0302316
0.0311134
0.0319903
0.0328611
0.0337245
0.0345793
0.0354242
0.0362581
0.0370798
0.0378881
0.0386818
0.0394599
0.0402213
0.0409649
0.0416898
0.0423949
0.0430793
0.0437422
0.0443826
0.0449999
0.0455933
0.0461621
0.0467056
0.0472232
0.0477144
0.0481788
0.0486159
0.0490252
0.0494066
0.0497597
0.0500843
0.0503803
0.0506475
0.0508859
0.0510955
0.0512764
0.0514285
0.0515521
0.0516474
0.0517146
0.0517539
0.0517657
0.0517507
0.0517088
0.0516404
0.0515461
0.0514263
0.0512818
0.0511129
0.0509203
0.0507046
0.0504665
0.0502065
0.0499254
0.0496238
0.0493025
0.0489621
0.0486034
0.0482271
0.0478339
0.0474246
0.0469999
0.0465605
0.0461073
0.0456409
0.0451621
0.0446717
0.0441703
0.0436587
0.0431375
0.0426076
0.0420695
0.041524
0.0409718
0.0404135
0.0398497
0.0392811
0.0387083
0.0381319
0.0375524
0.0369705
0.0363867
0.0358016
0.0352156
0.0346292
0.034043
0.0334573
0.0328727
0.0322895
0.0317083
0.0311292
0.0305529
0.0299795
0.0294095
0.0288432
0.0282808
0.0277227
0.0271691
0.0266203
0.0260766
0.0255381
0.0250051
0.0244778
0.0239564
0.023441
0.0229318
0.0224289
0.0219325
0.0214427
0.0209596
0.0204833
0.0200138
0.0195513
0.0190958
0.0186474
0.0182061
0.017772
0.017345
0.0169252
0.0165127
0.0161073
0.0157092
0.0153182
0.0149344
0.0145578
0.0141884
0.013826
0.0134706
0.0131223
0.012781
0.0124465
0.0121189
0.0117982
0.0114841
0.0111767
0.0108759
0.0105816
0.0102937
0.0100122
0.00973699
0.00946798
0.00920508
0.00894822
0.0086973
0.00845223
0.00821293
0.00797931
0.00775128
0.00752874
0.0073116
0.00709978
0.00689317
0.0066917
0.00649525
0.00630375
0.0061171
0.0059352
0.00575798
0.00558532
0.00541716
0.00525338
0.00509392
0.00493867
0.00478755
0.00464047
0.00449734
0.00435809
0.00422262
0.00409086
0.00396272
0.00383812
0.00371697
0.00359921
0.00348474
0.00337351
0.00326542
0.0031604
0.00305839
0.00295931
0.00286309
0.00276965
0.00267894
0.00259087
0.0025054
0.00242244
0.00234195
0.00226385
0.00218808
0.00211459
0.00204331
0.00197419
0.00190717
0.0018422
0.00177921
0.00171817
0.00165901
0.00160169
0.00154615
0.00149235
0.00144024
0.00138977
0.0013409
0.00129358
0.00124777
0.00120343
0.00116052
0.00111899
0.0010788
0.00103993
0.00100232
0.000965946
0.000930769
0.000896754
0.000863868
0.000832077
0.000801349
0.000771651
0.000742954
0.000715228
0.000688443
0.00066257
0.000637583
0.000613453
0.000590156
0.000567665
0.000545955
0.000525002
0.000504782
0.000485273
0.000466453
0.000448299
0.00043079
0.000413906
0.000397627
0.000381933
0.000366806
0.000352227
0.000338178
0.000324642
0.000311603
0.000299043
0.000286947
0.0002753
0.000264087
0.000253292
0.000242903
0.000232905
0.000223284
0.000214029
0.000205127
0.000196565
0.000188331
0.000180415
0.000172805
0.000165491
0.000158462
0.000151708
0.000145219
0.000138987
0.000133001
0.000127252
0.000121734
0.000116436
0.000111351
0.000106471
0.000101789
9.72979e-05
9.29898e-05
8.88581e-05
8.48964e-05
8.10983e-05
7.74576e-05
7.39684e-05
7.06249e-05
6.74216e-05
6.43531e-05
6.14142e-05
5.85999e-05
5.59054e-05
5.33261e-05
5.08573e-05
4.84948e-05
4.62344e-05
4.40721e-05
4.20039e-05
4.00261e-05
3.8135e-05
3.63272e-05
3.45992e-05
3.29479e-05
3.13702e-05
2.98629e-05
2.84233e-05
2.70484e-05
2.57357e-05
2.44825e-05
2.32864e-05
2.21449e-05
2.10558e-05
2.00168e-05
1.90258e-05
1.80808e-05
1.71797e-05
1.63208e-05
1.55021e-05
1.47219e-05
1.39786e-05
1.32705e-05
1.25961e-05
1.1954e-05
1.13426e-05
1.07606e-05
1.02068e-05
9.67978e-06
9.17846e-06
8.70166e-06
8.24827e-06
7.81723e-06
7.40756e-06
7.01827e-06
6.64847e-06
6.29726e-06
5.96383e-06
5.64737e-06
5.34714e-06
5.06243e-06
4.79257e-06
4.53692e-06
4.29489e-06
4.06594e-06
3.84955e-06
3.64525e-06
3.45262e-06
3.27129e-06
3.10093e-06
2.94124e-06
2.79203e-06
2.65311e-06
2.52439e-06
2.40585e-06
2.29752e-06
2.19953e-06
2.1121e-06
2.03553e-06
1.97023e-06
1.9167e-06
1.87551e-06
1.84735e-06
1.83292e-06
7.14264e-05
0.000229067
0.000402647
0.000592441
0.00079846
0.0010208
0.00125966
0.00151532
0.00178815
0.00207855
0.00238696
0.00271384
0.00305962
0.00342473
0.00380954
0.00421441
0.00463963
0.00508548
0.00555213
0.00603976
0.00654844
0.00707822
0.00762907
0.00820092
0.00879363
0.00940701
0.0100408
0.0106947
0.0113683
0.0120612
0.012773
0.013503
0.0142507
0.0150154
0.0157965
0.0165931
0.0174044
0.0182296
0.0190679
0.0199181
0.0207794
0.0216506
0.0225308
0.0234188
0.0243135
0.0252137
0.0261182
0.0270257
0.0279351
0.0288451
0.0297544
0.0306617
0.0315658
0.0324654
0.0333591
0.0342458
0.0351241
0.0359927
0.0368505
0.0376962
0.0385286
0.0393465
0.0401488
0.0409344
0.0417021
0.042451
0.0431799
0.0438881
0.0445744
0.0452382
0.0458784
0.0464944
0.0470854
0.0476507
0.0481898
0.048702
0.0491868
0.0496438
0.0500725
0.0504727
0.050844
0.0511861
0.051499
0.0517824
0.0520362
0.0522606
0.0524554
0.0526208
0.052757
0.052864
0.052942
0.0529915
0.0530126
0.053006
0.0529721
0.0529106
0.0528224
0.052708
0.0525679
0.0524027
0.052213
0.0519995
0.0517627
0.0515033
0.051222
0.0509195
0.0505966
0.0502538
0.0498921
0.049512
0.0491145
0.0487001
0.0482698
0.0478242
0.0473641
0.0468903
0.0464035
0.0459046
0.0453942
0.044873
0.0443419
0.0438016
0.0432527
0.042696
0.0421322
0.0415619
0.0409858
0.0404046
0.0398189
0.0392293
0.0386364
0.0380409
0.0374432
0.0368439
0.0362437
0.0356429
0.0350421
0.0344417
0.0338423
0.0332443
0.0326481
0.0320541
0.0314626
0.0308742
0.0302891
0.0297076
0.0291302
0.028557
0.0279884
0.0274246
0.026866
0.0263126
0.0257649
0.0252229
0.0246869
0.024157
0.0236334
0.0231163
0.0226057
0.0221019
0.0216049
0.0211149
0.0206319
0.020156
0.0196872
0.0192257
0.0187715
0.0183246
0.0178851
0.0174529
0.0170281
0.0166107
0.0162007
0.0157981
0.0154029
0.015015
0.0146344
0.0142611
0.0138951
0.0135362
0.0131845
0.0128399
0.0125024
0.0121718
0.0118481
0.0115313
0.0112213
0.0109179
0.0106212
0.0103311
0.0100474
0.00977003
0.00949899
0.00923417
0.00897546
0.00872278
0.00847603
0.00823513
0.00799998
0.00777049
0.00754657
0.00732811
0.00711502
0.00690722
0.0067046
0.00650708
0.00631454
0.00612692
0.00594409
0.00576599
0.0055925
0.00542354
0.00525902
0.00509885
0.00494293
0.00479117
0.0046435
0.00449981
0.00436003
0.00422406
0.00409183
0.00396325
0.00383823
0.00371669
0.00359857
0.00348376
0.00337221
0.00326382
0.00315853
0.00305627
0.00295695
0.0028605
0.00276686
0.00267596
0.00258773
0.0025021
0.002419
0.00233837
0.00226015
0.00218428
0.0021107
0.00203933
0.00197014
0.00190306
0.00183803
0.001775
0.00171392
0.00165473
0.00159738
0.00154183
0.00148802
0.0014359
0.00138544
0.00133657
0.00128927
0.00124347
0.00119915
0.00115626
0.00111476
0.00107461
0.00103577
0.0009982
0.000961867
0.000926734
0.000892766
0.000859928
0.000828187
0.000797511
0.000767868
0.000739226
0.000711556
0.000684829
0.000659015
0.000634087
0.000610019
0.000586782
0.000564352
0.000542704
0.000521814
0.000501657
0.000482211
0.000463453
0.000445361
0.000427915
0.000411093
0.000394876
0.000379244
0.000364179
0.00034966
0.000335672
0.000322197
0.000309217
0.000296716
0.000284678
0.000273089
0.000261932
0.000251193
0.000240859
0.000230915
0.000221349
0.000212146
0.000203296
0.000194785
0.000186602
0.000178735
0.000171173
0.000163906
0.000156924
0.000150216
0.000143772
0.000137583
0.000131639
0.000125933
0.000120455
0.000115198
0.000110152
0.000105311
0.000100666
9.62109e-05
9.19382e-05
8.78412e-05
8.39133e-05
8.01481e-05
7.65395e-05
7.30815e-05
6.97684e-05
6.65946e-05
6.35549e-05
6.0644e-05
5.78568e-05
5.51888e-05
5.2635e-05
5.01912e-05
4.78529e-05
4.56159e-05
4.34763e-05
4.14301e-05
3.94737e-05
3.76033e-05
3.58155e-05
3.4107e-05
3.24745e-05
3.0915e-05
2.94253e-05
2.80027e-05
2.66443e-05
2.53475e-05
2.41097e-05
2.29285e-05
2.18013e-05
2.07261e-05
1.97005e-05
1.87224e-05
1.77898e-05
1.69007e-05
1.60534e-05
1.52458e-05
1.44764e-05
1.37435e-05
1.30454e-05
1.23806e-05
1.17477e-05
1.11452e-05
1.05718e-05
1.00262e-05
9.50721e-06
9.01354e-06
8.5441e-06
8.0978e-06
7.67359e-06
7.27049e-06
6.88753e-06
6.52383e-06
6.17851e-06
5.85076e-06
5.5398e-06
5.2449e-06
4.96535e-06
4.7005e-06
4.44974e-06
4.2125e-06
3.98824e-06
3.77649e-06
3.57679e-06
3.38876e-06
3.21205e-06
3.04636e-06
2.89146e-06
2.74718e-06
2.6134e-06
2.4901e-06
2.3773e-06
2.27514e-06
2.18384e-06
2.10373e-06
2.03522e-06
1.97887e-06
1.93533e-06
1.90538e-06
1.88991e-06
7.00942e-05
0.000224748
0.000394782
0.000580856
0.000783343
0.00100249
0.00123854
0.0014918
0.00176262
0.00205141
0.0023586
0.00268462
0.00302993
0.00339492
0.00378
0.00418552
0.00461177
0.00505904
0.00552752
0.00601737
0.00652872
0.00706159
0.00761599
0.00819186
0.00878907
0.00940744
0.0100467
0.0107066
0.0113868
0.0120869
0.0128063
0.0135446
0.0143011
0.0150752
0.0158663
0.0166735
0.017496
0.0183331
0.0191837
0.0200469
0.0209218
0.0218073
0.0227023
0.0236056
0.0245162
0.0254329
0.0263544
0.0272794
0.0282068
0.0291353
0.0300635
0.0309903
0.0319141
0.0328338
0.0337481
0.0346555
0.0355549
0.0364449
0.0373243
0.0381918
0.0390461
0.0398861
0.0407105
0.0415183
0.0423082
0.0430792
0.0438303
0.0445604
0.0452687
0.0459541
0.0466158
0.0472531
0.047865
0.048451
0.0490104
0.0495425
0.0500469
0.050523
0.0509703
0.0513886
0.0517775
0.0521367
0.052466
0.0527653
0.0530345
0.0532735
0.0534823
0.0536611
0.0538098
0.0539288
0.0540181
0.0540781
0.0541091
0.0541113
0.0540861
0.0540323
0.053951
0.0538427
0.053708
0.0535475
0.0533617
0.0531514
0.0529171
0.0526595
0.0523793
0.0520772
0.051754
0.0514103
0.051047
0.0506647
0.0502642
0.0498464
0.049412
0.0489617
0.0484964
0.0480169
0.0475238
0.0470181
0.0465004
0.0459715
0.0454322
0.0448833
0.0443253
0.0437592
0.0431856
0.0426051
0.0420185
0.0414265
0.0408297
0.0402287
0.0396242
0.0390168
0.038407
0.0377954
0.0371827
0.0365692
0.0359556
0.0353423
0.0347299
0.0341187
0.0335092
0.0329018
0.032297
0.0316951
0.0310965
0.0305016
0.0299106
0.0293239
0.0287418
0.0281646
0.0275925
0.0270258
0.0264647
0.0259095
0.0253602
0.0248172
0.0242806
0.0237506
0.0232272
0.0227107
0.0222012
0.0216986
0.0212033
0.0207152
0.0202344
0.0197609
0.0192949
0.0188364
0.0183854
0.0179419
0.0175059
0.0170775
0.0166567
0.0162434
0.0158376
0.0154393
0.0150486
0.0146652
0.0142893
0.0139208
0.0135596
0.0132057
0.0128589
0.0125193
0.0121869
0.0118614
0.0115428
0.0112312
0.0109263
0.0106281
0.0103366
0.0100516
0.00977302
0.00950083
0.00923492
0.0089752
0.00872156
0.00847392
0.00823218
0.00799625
0.00776603
0.00754142
0.00732233
0.00710866
0.00690032
0.0066972
0.00649921
0.00630625
0.00611823
0.00593506
0.00575663
0.00558285
0.00541363
0.00524887
0.00508849
0.00493238
0.00478047
0.00463266
0.00448885
0.00434897
0.00421293
0.00408063
0.003952
0.00382695
0.00370541
0.00358728
0.00347249
0.00336096
0.00325261
0.00314737
0.00304515
0.0029459
0.00284953
0.00275597
0.00266516
0.00257702
0.00249149
0.00240851
0.00232799
0.00224989
0.00217415
0.00210069
0.00202946
0.0019604
0.00189345
0.00182856
0.00176568
0.00170474
0.0016457
0.0015885
0.0015331
0.00147943
0.00142747
0.00137716
0.00132844
0.00128129
0.00123565
0.00119148
0.00114874
0.00110739
0.00106739
0.0010287
0.000991278
0.000955093
0.000920107
0.000886284
0.000853591
0.000821993
0.000791458
0.000761955
0.000733452
0.000705918
0.000679326
0.000653646
0.00062885
0.000604911
0.000581802
0.000559498
0.000537975
0.000517206
0.000497169
0.000477841
0.0004592
0.000441222
0.000423888
0.000407176
0.000391067
0.000375541
0.000360579
0.000346163
0.000332275
0.000318897
0.000306013
0.000293605
0.00028166
0.00027016
0.000259091
0.000248438
0.000238188
0.000228326
0.000218839
0.000209715
0.00020094
0.000192504
0.000184393
0.000176597
0.000169104
0.000161905
0.000154987
0.000148343
0.000141961
0.000135832
0.000129948
0.000124299
0.000118877
0.000113673
0.00010868
0.000103889
9.92944e-05
9.48875e-05
9.06616e-05
8.661e-05
8.27261e-05
7.90036e-05
7.54364e-05
7.20186e-05
6.87444e-05
6.56084e-05
6.26052e-05
5.97296e-05
5.69768e-05
5.43419e-05
5.18203e-05
4.94075e-05
4.70992e-05
4.48913e-05
4.27798e-05
4.07608e-05
3.88306e-05
3.69855e-05
3.52222e-05
3.35373e-05
3.19277e-05
3.03901e-05
2.89217e-05
2.75196e-05
2.61809e-05
2.49032e-05
2.36838e-05
2.25202e-05
2.14101e-05
2.03512e-05
1.93414e-05
1.83785e-05
1.74606e-05
1.65856e-05
1.57518e-05
1.49573e-05
1.42004e-05
1.34795e-05
1.2793e-05
1.21394e-05
1.15172e-05
1.0925e-05
1.03615e-05
9.82536e-06
9.31544e-06
8.83053e-06
8.3695e-06
7.93127e-06
7.51483e-06
7.11919e-06
6.74341e-06
6.38662e-06
6.04795e-06
5.72661e-06
5.42184e-06
5.13291e-06
4.85915e-06
4.59992e-06
4.35464e-06
4.12274e-06
3.90373e-06
3.69714e-06
3.50257e-06
3.31964e-06
3.14806e-06
2.98757e-06
2.83798e-06
2.69918e-06
2.57112e-06
2.45384e-06
2.34746e-06
2.25222e-06
2.16845e-06
2.09661e-06
2.0373e-06
1.99127e-06
1.95941e-06
1.94284e-06
6.88391e-05
0.000220659
0.000387348
0.000569667
0.000768236
0.000983512
0.00121589
0.00146576
0.00173353
0.00201963
0.0023245
0.00264858
0.00299231
0.0033561
0.00374033
0.00414535
0.00457148
0.00501898
0.00548806
0.00597889
0.00649158
0.00702619
0.00758273
0.00816114
0.00876132
0.0093831
0.0100263
0.0106905
0.0113755
0.0120808
0.012806
0.0135506
0.0143139
0.0150954
0.0158944
0.01671
0.0175416
0.0183882
0.0192489
0.0201228
0.0210089
0.0219061
0.0228134
0.0237296
0.0246536
0.0255842
0.02652
0.02746
0.0284028
0.0293471
0.0302916
0.0312351
0.032176
0.0331132
0.0340453
0.034971
0.0358889
0.0367976
0.037696
0.0385827
0.0394564
0.040316
0.0411601
0.0419876
0.0427974
0.0435882
0.0443592
0.0451091
0.0458371
0.0465421
0.0472234
0.0478799
0.048511
0.0491158
0.0496938
0.0502442
0.0507665
0.0512602
0.0517249
0.05216
0.0525652
0.0529404
0.0532851
0.0535994
0.053883
0.0541358
0.054358
0.0545495
0.0547104
0.0548409
0.0549412
0.0550115
0.0550521
0.0550634
0.0550465
0.0550007
0.0549264
0.0548246
0.0546956
0.0545402
0.054359
0.0541524
0.0539213
0.0536663
0.053388
0.0530872
0.0527646
0.052421
0.0520571
0.0516737
0.0512715
0.0508515
0.0504142
0.0499606
0.0494915
0.0490076
0.0485097
0.0479987
0.0474752
0.0469401
0.0463942
0.0458382
0.0452729
0.044699
0.0441172
0.0435283
0.042933
0.0423319
0.0417257
0.0411151
0.0405007
0.0398832
0.0392631
0.038641
0.0380175
0.0373932
0.0367685
0.0361441
0.0355203
0.0348977
0.0342767
0.0336578
0.0330413
0.0324277
0.0318174
0.0312107
0.0306079
0.0300094
0.0294155
0.0288264
0.0282426
0.0276641
0.0270913
0.0265244
0.0259635
0.025409
0.0248609
0.0243195
0.0237848
0.023257
0.0227363
0.0222228
0.0217165
0.0212175
0.020726
0.020242
0.0197655
0.0192967
0.0188354
0.0183818
0.0179359
0.0174977
0.0170672
0.0166444
0.0162292
0.0158217
0.0154219
0.0150296
0.0146449
0.0142677
0.013898
0.0135357
0.0131807
0.0128331
0.0124927
0.0121595
0.0118333
0.0115142
0.011202
0.0108966
0.010598
0.0103061
0.0100208
0.00974204
0.00946966
0.0092036
0.00894377
0.00869007
0.00844241
0.00820068
0.00796479
0.00773465
0.00751015
0.0072912
0.00707769
0.00686954
0.00666663
0.00646887
0.00627617
0.00608842
0.00590553
0.0057274
0.00555394
0.00538505
0.00522064
0.0050606
0.00490486
0.00475332
0.00460588
0.00446246
0.00432297
0.00418732
0.00405543
0.0039272
0.00380256
0.00368142
0.0035637
0.00344932
0.0033382
0.00323027
0.00312544
0.00302364
0.00292479
0.00282883
0.00273568
0.00264528
0.00255754
0.00247241
0.00238982
0.0023097
0.00223199
0.00215662
0.00208355
0.00201269
0.00194401
0.00187743
0.00181291
0.00175038
0.0016898
0.00163111
0.00157425
0.00151919
0.00146586
0.00141423
0.00136424
0.00131584
0.001269
0.00122367
0.00117981
0.00113736
0.00109631
0.00105659
0.00101818
0.000981039
0.000945126
0.000910406
0.000876844
0.000844406
0.000813059
0.00078277
0.000753507
0.000725239
0.000697937
0.00067157
0.00064611
0.00062153
0.000597801
0.000574899
0.000552797
0.00053147
0.000510894
0.000491045
0.0004719
0.000453438
0.000435635
0.000418471
0.000401926
0.000385979
0.000370611
0.000355803
0.000341537
0.000327795
0.00031456
0.000301814
0.000289542
0.000277728
0.000266356
0.000255412
0.00024488
0.000234748
0.000225
0.000215625
0.000206609
0.00019794
0.000189606
0.000181594
0.000173895
0.000166496
0.000159387
0.000152558
0.000145999
0.0001397
0.000133652
0.000127845
0.000122272
0.000116923
0.00011179
0.000106866
0.000102142
9.76118e-05
9.32673e-05
8.91019e-05
8.51087e-05
8.12814e-05
7.76137e-05
7.40994e-05
7.07327e-05
6.7508e-05
6.44198e-05
6.14627e-05
5.86318e-05
5.5922e-05
5.33287e-05
5.08472e-05
4.84731e-05
4.62022e-05
4.40304e-05
4.19536e-05
3.99681e-05
3.80702e-05
3.62563e-05
3.4523e-05
3.2867e-05
3.12852e-05
2.97744e-05
2.83318e-05
2.69546e-05
2.56398e-05
2.43851e-05
2.31878e-05
2.20455e-05
2.09558e-05
1.99167e-05
1.89257e-05
1.7981e-05
1.70805e-05
1.62223e-05
1.54046e-05
1.46255e-05
1.38835e-05
1.31768e-05
1.25039e-05
1.18634e-05
1.12538e-05
1.06736e-05
1.01217e-05
9.59668e-06
9.0974e-06
8.62268e-06
8.17144e-06
7.7426e-06
7.33516e-06
6.94817e-06
6.58069e-06
6.23187e-06
5.90087e-06
5.58691e-06
5.28924e-06
5.00717e-06
4.74005e-06
4.48726e-06
4.24822e-06
4.02243e-06
3.80939e-06
3.60868e-06
3.41992e-06
3.24279e-06
3.07702e-06
2.92243e-06
2.77886e-06
2.64628e-06
2.52471e-06
2.41428e-06
2.31523e-06
2.22792e-06
2.15283e-06
2.09062e-06
2.04213e-06
2.00838e-06
1.99072e-06
6.77304e-05
0.000217034
0.000380758
0.000559656
0.000754479
0.00096586
0.00119436
0.0014405
0.00170477
0.00198766
0.00228964
0.00261118
0.0029527
0.00331463
0.00369734
0.00410118
0.00452644
0.0049734
0.00544227
0.00593321
0.00644634
0.00698173
0.00753938
0.00811927
0.00872128
0.00934527
0.00999101
0.0106582
0.0113466
0.0120558
0.0127852
0.0135345
0.014303
0.0150901
0.0158951
0.0167173
0.0175559
0.0184101
0.0192788
0.0201612
0.0210563
0.021963
0.0228803
0.023807
0.0247419
0.0256838
0.0266316
0.0275839
0.0285394
0.0294969
0.030455
0.0314124
0.0323678
0.0333197
0.0342669
0.0352079
0.0361414
0.0370661
0.0379807
0.0388838
0.0397741
0.0406504
0.0415114
0.0423559
0.0431828
0.0439908
0.0447789
0.0455461
0.0462912
0.0470133
0.0477115
0.0483849
0.0490327
0.0496541
0.0502484
0.050815
0.0513532
0.0518624
0.0523423
0.0527924
0.0532122
0.0536016
0.0539602
0.0542878
0.0545844
0.0548498
0.055084
0.055287
0.0554591
0.0556001
0.0557105
0.0557903
0.0558399
0.0558596
0.0558503
0.0558123
0.0557448
0.0556491
0.0555258
0.0553755
0.0551987
0.0549961
0.0547684
0.0545162
0.0542402
0.0539411
0.0536198
0.0532768
0.0529131
0.0525293
0.0521263
0.0517049
0.0512659
0.05081
0.0503381
0.049851
0.0493495
0.0488344
0.0483065
0.0477666
0.0472155
0.0466539
0.0460827
0.0455025
0.0449142
0.0443184
0.0437159
0.0431074
0.0424936
0.041875
0.0412525
0.0406266
0.0399979
0.0393671
0.0387347
0.0381013
0.0374675
0.0368337
0.0362004
0.0355683
0.0349376
0.0343089
0.0336826
0.0330592
0.0324389
0.0318222
0.0312094
0.0306009
0.029997
0.0293979
0.028804
0.0282156
0.0276328
0.0270559
0.0264852
0.0259208
0.0253629
0.0248117
0.0242673
0.02373
0.0231997
0.0226767
0.0221611
0.0216528
0.0211521
0.020659
0.0201736
0.0196958
0.0192258
0.0187636
0.0183091
0.0178625
0.0174236
0.0169926
0.0165693
0.0161539
0.0157462
0.0153462
0.0149539
0.0145692
0.0141922
0.0138227
0.0134607
0.013106
0.0127588
0.0124188
0.0120861
0.0117605
0.011442
0.0111304
0.0108257
0.0105279
0.0102367
0.00995221
0.00967422
0.00940268
0.00913748
0.00887852
0.00862572
0.00837896
0.00813817
0.00790322
0.00767403
0.00745049
0.0072325
0.00701996
0.00681278
0.00661085
0.00641408
0.00622236
0.00603559
0.00585368
0.00567653
0.00550404
0.00533612
0.00517267
0.0050136
0.00485881
0.00470821
0.00456171
0.00441921
0.00428064
0.0041459
0.00401491
0.00388757
0.00376381
0.00364354
0.00352668
0.00341314
0.00330286
0.00319574
0.00309172
0.00299072
0.00289266
0.00279747
0.00270508
0.00261542
0.00252842
0.00244401
0.00236213
0.0022827
0.00220568
0.00213098
0.00205856
0.00198836
0.0019203
0.00185435
0.00179043
0.0017285
0.0016685
0.00161038
0.00155409
0.00149957
0.00144678
0.00139567
0.00134619
0.0012983
0.00125195
0.0012071
0.00116371
0.00112172
0.00108111
0.00104184
0.00100385
0.000967128
0.000931621
0.000897299
0.000864125
0.000832065
0.000801087
0.000771158
0.000742246
0.00071432
0.000687351
0.000661309
0.000636165
0.000611893
0.000588466
0.000565856
0.000544038
0.000522989
0.000502682
0.000483096
0.000464207
0.000445992
0.000428431
0.000411503
0.000395186
0.000379461
0.000364309
0.000349711
0.000335648
0.000322104
0.000309061
0.000296502
0.000284411
0.000272773
0.000261571
0.000250793
0.000240422
0.000230445
0.000220849
0.00021162
0.000202746
0.000194214
0.000186013
0.000178131
0.000170556
0.000163279
0.000156287
0.000149572
0.000143122
0.00013693
0.000130985
0.000125278
0.000119801
0.000114545
0.000109502
0.000104665
0.000100025
9.55761e-05
9.13101e-05
8.72205e-05
8.33005e-05
7.95439e-05
7.59444e-05
7.24959e-05
6.91928e-05
6.60294e-05
6.30002e-05
6.01002e-05
5.73242e-05
5.46674e-05
5.21251e-05
4.96928e-05
4.73662e-05
4.51409e-05
4.3013e-05
4.09786e-05
3.90338e-05
3.71751e-05
3.53989e-05
3.37019e-05
3.20809e-05
3.05326e-05
2.90541e-05
2.76425e-05
2.6295e-05
2.5009e-05
2.37817e-05
2.26108e-05
2.14939e-05
2.04286e-05
1.94128e-05
1.84444e-05
1.75212e-05
1.66413e-05
1.58029e-05
1.50042e-05
1.42434e-05
1.35188e-05
1.28288e-05
1.2172e-05
1.15469e-05
1.09519e-05
1.03859e-05
9.84748e-06
9.33541e-06
8.84853e-06
8.38569e-06
7.94582e-06
7.52789e-06
7.13089e-06
6.75391e-06
6.39603e-06
6.05642e-06
5.73427e-06
5.42882e-06
5.13934e-06
4.86517e-06
4.60567e-06
4.36026e-06
4.1284e-06
3.90958e-06
3.70338e-06
3.50939e-06
3.32728e-06
3.15678e-06
2.99766e-06
2.8498e-06
2.71312e-06
2.58766e-06
2.47355e-06
2.37102e-06
2.28045e-06
2.20237e-06
2.13749e-06
2.08671e-06
2.05122e-06
2.03253e-06
6.68028e-05
0.000213999
0.000375249
0.000551259
0.000742833
0.000950729
0.00117565
0.00141824
0.00167909
0.00195877
0.0022578
0.00257667
0.00291582
0.00327567
0.00365659
0.00405894
0.00448299
0.00492902
0.00539723
0.00588778
0.0064008
0.00693636
0.00749446
0.00807508
0.00867813
0.00930345
0.00995085
0.0106201
0.0113108
0.0120226
0.0127551
0.0135077
0.0142799
0.0150712
0.0158807
0.0167079
0.0175518
0.0184116
0.0192865
0.0201755
0.0210775
0.0219916
0.0229167
0.0238516
0.0247951
0.025746
0.0267032
0.0276652
0.0286309
0.0295989
0.0305679
0.0315366
0.0325035
0.0334672
0.0344265
0.03538
0.0363262
0.0372639
0.0381916
0.039108
0.0400119
0.0409019
0.0417768
0.0426352
0.0434761
0.0442983
0.0451006
0.0458819
0.0466411
0.0473774
0.0480897
0.0487771
0.0494388
0.050074
0.0506819
0.051262
0.0518134
0.0523357
0.0528284
0.0532911
0.0537232
0.0541246
0.0544948
0.0548339
0.0551414
0.0554175
0.055662
0.055875
0.0560565
0.0562066
0.0563256
0.0564137
0.0564711
0.0564982
0.0564955
0.0564643
0.0564028
0.0563127
0.0561944
0.0560487
0.0558761
0.0556772
0.0554526
0.0552032
0.0549295
0.0546323
0.0543124
0.0539704
0.0536072
0.0532235
0.0528202
0.0523981
0.0519579
0.0515006
0.0510268
0.0505374
0.0500333
0.0495152
0.048984
0.0484405
0.0478854
0.0473196
0.0467438
0.0461588
0.0455654
0.0449643
0.0443562
0.0437418
0.0431219
0.0424971
0.0418681
0.0412356
0.0406001
0.0399623
0.0393228
0.0386821
0.0380409
0.0373996
0.0367588
0.0361189
0.0354804
0.0348439
0.0342097
0.0335782
0.0329499
0.0323251
0.0317043
0.0310876
0.0304756
0.0298684
0.0292663
0.0286698
0.0280789
0.0274939
0.0269151
0.0263426
0.0257767
0.0252176
0.0246653
0.0241201
0.0235821
0.0230514
0.022528
0.0220122
0.021504
0.0210035
0.0205106
0.0200256
0.0195484
0.019079
0.0186176
0.018164
0.0177183
0.0172806
0.0168507
0.0164287
0.0160145
0.0156082
0.0152096
0.0148189
0.0144358
0.0140603
0.0136924
0.0133321
0.0129792
0.0126337
0.0122956
0.0119646
0.0116409
0.0113242
0.0110145
0.0107117
0.0104157
0.0101265
0.00984387
0.0095678
0.00929816
0.00903486
0.00877781
0.00852691
0.00828205
0.00804313
0.00781006
0.00758272
0.00736103
0.00714488
0.00693416
0.00672878
0.00652863
0.00633362
0.00614364
0.0059586
0.0057784
0.00560293
0.00543211
0.00526582
0.00510399
0.00494651
0.00479329
0.00464424
0.00449926
0.00435826
0.00422116
0.00408787
0.0039583
0.00383236
0.00370997
0.00359105
0.00347551
0.00336328
0.00325427
0.0031484
0.00304561
0.00294581
0.00284893
0.00275489
0.00266363
0.00257508
0.00248916
0.00240581
0.00232496
0.00224655
0.00217052
0.0020968
0.00202533
0.00195605
0.0018889
0.00182383
0.00176078
0.00169969
0.00164052
0.0015832
0.00152769
0.00147394
0.0014219
0.00137152
0.00132276
0.00127556
0.00122989
0.0011857
0.00114294
0.00110159
0.00106159
0.00102291
0.000985505
0.000949343
0.000914387
0.000880599
0.000847946
0.000816394
0.000785909
0.00075646
0.000728015
0.000700543
0.000674016
0.000648403
0.000623678
0.000599812
0.000576778
0.000554552
0.000533107
0.000512419
0.000492464
0.000473219
0.000454661
0.000436768
0.000419519
0.000402893
0.00038687
0.000371431
0.000356555
0.000342225
0.000328423
0.000315131
0.000302333
0.000290011
0.000278149
0.000266734
0.000255748
0.000245178
0.000235009
0.000225228
0.000215821
0.000206776
0.000198079
0.000189719
0.000181684
0.000173963
0.000166544
0.000159416
0.00015257
0.000145995
0.000139682
0.00013362
0.000127802