# vtk DataFile Version 2.0
sampleSurface
ASCII
DATASET POLYDATA
POINTS 8421 float
0.001 0.001 0.001 0 0.001 0.001 0 0 0.001 0.001 0
0.001 0.002 0.001 0.001 0.002 0 0.001 0.003 0.001 0.001
0.003 0 0.001 0.004 0.001 0.001 0.004 0 0.001 0.005
0.001 0.001 0.005 0 0.001 0.006 0.001 0.001 0.006 0
0.001 0.007 0.001 0.001 0.007 0 0.001 0.008 0.001 0.001
0.008 0 0.001 0.009 0.001 0.001 0.009 0 0.001 0.01
0.001 0.001 0.01 0 0.001 0.011 0.001 0.001 0.011 0
0.001 0.012 0.001 0.001 0.012 0 0.001 0.013 0.001 0.001
0.013 0 0.001 0.014 0.001 0.001 0.014 0 0.001 0.015
0.001 0.001 0.015 0 0.001 0.016 0.001 0.001 0.016 0
0.001 0.017 0.001 0.001 0.017 0 0.001 0.018 0.001 0.001
0.018 0 0.001 0.019 0.001 0.001 0.019 0 0.001 0.02
0.001 0.001 0.02 0 0.001 0.021 0.001 0.001 0.021 0
0.001 0.022 0.001 0.001 0.022 0 0.001 0.023 0.001 0.001
0.023 0 0.001 0.024 0.001 0.001 0.024 0 0.001 0.025
0.001 0.001 0.025 0 0.001 0.026 0.001 0.001 0.026 0
0.001 0.027 0.001 0.001 0.027 0 0.001 0.028 0.001 0.001
0.028 0 0.001 0.029 0.001 0.001 0.029 0 0.001 0.03
0.001 0.001 0.03 0 0.001 0.031 0.001 0.001 0.031 0
0.001 0.032 0.001 0.001 0.032 0 0.001 0.033 0.001 0.001
0.033 0 0.001 0.034 0.001 0.001 0.034 0 0.001 0.035
0.001 0.001 0.035 0 0.001 0.036 0.001 0.001 0.036 0
0.001 0.037 0.001 0.001 0.037 0 0.001 0.038 0.001 0.001
0.038 0 0.001 0.039 0.001 0.001 0.039 0 0.001 0.04
0.001 0.001 0.04 0 0.001 0.041 0.001 0.001 0.041 0
0.001 0.042 0.001 0.001 0.042 0 0.001 0.043 0.001 0.001
0.043 0 0.001 0.044 0.001 0.001 0.044 0 0.001 0.045
0.001 0.001 0.045 0 0.001 0.046 0.001 0.001 0.046 0
0.001 0.047 0.001 0.001 0.047 0 0.001 0.048 0.001 0.001
0.048 0 0.001 0.049 0.001 0.001 0.049 0 0.001 0.05
0.001 0.001 0.05 0 0.001 0.051 0.001 0.001 0.051 0
0.001 0.052 0.001 0.001 0.052 0 0.001 0.053 0.001 0.001
0.053 0 0.001 0.054 0.001 0.001 0.054 0 0.001 0.055
0.001 0.001 0.055 0 0.001 0.056 0.001 0.001 0.056 0
0.001 0.057 0.001 0.001 0.057 0 0.001 0.058 0.001 0.001
0.058 0 0.001 0.059 0.001 0.001 0.059 0 0.001 0.06
0.001 0.001 0.06 0 0.001 0.061 0.001 0.001 0.061 0
0.001 0.062 0.001 0.001 0.062 0 0.001 0.063 0.001 0.001
0.063 0 0.001 0.064 0.001 0.001 0.064 0 0.001 0.065
0.001 0.001 0.065 0 0.001 0.066 0.001 0.001 0.066 0
0.001 0.067 0.001 0.001 0.067 0 0.001 0.068 0.001 0.001
0.068 0 0.001 0.069 0.001 0.001 0.069 0 0.001 0.07
0.001 0.001 0.07 0 0.001 0.071 0.001 0.001 0.071 0
0.001 0.072 0.001 0.001 0.072 0 0.001 0.073 0.001 0.001
0.073 0 0.001 0.074 0.001 0.001 0.074 0 0.001 0.075
0.001 0.001 0.075 0 0.001 0.076 0.001 0.001 0.076 0
0.001 0.077 0.001 0.001 0.077 0 0.001 0.078 0.001 0.001
0.078 0 0.001 0.079 0.001 0.001 0.079 0 0.001 0.08
0.001 0.001 0.08 0 0.001 0.081 0.001 0.001 0.081 0
0.001 0.082 0.001 0.001 0.082 0 0.001 0.083 0.001 0.001
0.083 0 0.001 0.084 0.001 0.001 0.084 0 0.001 0.085
0.001 0.001 0.085 0 0.001 0.086 0.001 0.001 0.086 0
0.001 0.087 0.001 0.001 0.087 0 0.001 0.088 0.001 0.001
0.088 0 0.001 0.089 0.001 0.001 0.089 0 0.001 0.09
0.001 0.001 0.09 0 0.001 0.091 0.001 0.001 0.091 0
0.001 0.092 0.001 0.001 0.092 0 0.001 0.093 0.001 0.001
0.093 0 0.001 0.094 0.001 0.001 0.094 0 0.001 0.095
0.001 0.001 0.095 0 0.001 0.096 0.001 0.001 0.096 0
0.001 0.097 0.001 0.001 0.097 0 0.001 0.098 0.001 0.001
0.098 0 0.001 0.099 0.001 0.001 0.099 0 0.001 0.1
0.001 0.001 0.1 0 0.001 0.101 0.001 0.001 0.101 0
0.001 0.102 0.001 0.001 0.102 0 0.001 0.103 0.001 0.001
0.103 0 0.001 0.104 0.001 0.001 0.104 0 0.001 0.105
0.001 0.001 0.105 0 0.001 0.106 0.001 0.001 0.106 0
0.001 0.107 0.001 0.001 0.107 0 0.001 0.108 0.001 0.001
0.108 0 0.001 0.109 0.001 0.001 0.109 0 0.001 0.11
0.001 0.001 0.11 0 0.001 0.111 0.001 0.001 0.111 0
0.001 0.112 0.001 0.001 0.112 0 0.001 0.113 0.001 0.001
0.113 0 0.001 0.114 0.001 0.001 0.114 0 0.001 0.115
0.001 0.001 0.115 0 0.001 0.116 0.001 0.001 0.116 0
0.001 0.117 0.001 0.001 0.117 0 0.001 0.118 0.001 0.001
0.118 0 0.001 0.119 0.001 0.001 0.119 0 0.001 0.12
0.001 0.001 0.12 0 0.001 0.121 0.001 0.001 0.121 0
0.001 0.122 0.001 0.001 0.122 0 0.001 0.123 0.001 0.001
0.123 0 0.001 0.124 0.001 0.001 0.124 0 0.001 0.125
0.001 0.001 0.125 0 0.001 0.126 0.001 0.001 0.126 0
0.001 0.127 0.001 0.001 0.127 0 0.001 0.128 0.001 0.001
0.128 0 0.001 0.129 0.001 0.001 0.129 0 0.001 0.13
0.001 0.001 0.13 0 0.001 0.131 0.001 0.001 0.131 0
0.001 0.132 0.001 0.001 0.132 0 0.001 0.133 0.001 0.001
0.133 0 0.001 0.134 0.001 0.001 0.134 0 0.001 0.135
0.001 0.001 0.135 0 0.001 0.136 0.001 0.001 0.136 0
0.001 0.137 0.001 0.001 0.137 0 0.001 0.138 0.001 0.001
0.138 0 0.001 0.139 0.001 0.001 0.139 0 0.001 0.14
0.001 0.001 0.14 0 0.001 0.141 0.001 0.001 0.141 0
0.001 0.142 0.001 0.001 0.142 0 0.001 0.143 0.001 0.001
0.143 0 0.001 0.144 0.001 0.001 0.144 0 0.001 0.145
0.001 0.001 0.145 0 0.001 0.146 0.001 0.001 0.146 0
0.001 0.147 0.001 0.001 0.147 0 0.001 0.148 0.001 0.001
0.148 0 0.001 0.149 0.001 0.001 0.149 0 0.001 0.15
0.001 0.001 0.15 0 0.001 0.151 0.001 0.001 0.151 0
0.001 0.152 0.001 0.001 0.152 0 0.001 0.153 0.001 0.001
0.153 0 0.001 0.154 0.001 0.001 0.154 0 0.001 0.155
0.001 0.001 0.155 0 0.001 0.156 0.001 0.001 0.156 0
0.001 0.157 0.001 0.001 0.157 0 0.001 0.158 0.001 0.001
0.158 0 0.001 0.159 0.001 0.001 0.159 0 0.001 0.16
0.001 0.001 0.16 0 0.001 0.161 0.001 0.001 0.161 0
0.001 0.162 0.001 0.001 0.162 0 0.001 0.163 0.001 0.001
0.163 0 0.001 0.164 0.001 0.001 0.164 0 0.001 0.165
0.001 0.001 0.165 0 0.001 0.166 0.001 0.001 0.166 0
0.001 0.167 0.001 0.001 0.167 0 0.001 0.168 0.001 0.001
0.168 0 0.001 0.169 0.001 0.001 0.169 0 0.001 0.17
0.001 0.001 0.17 0 0.001 0.171 0.001 0.001 0.171 0
0.001 0.172 0.001 0.001 0.172 0 0.001 0.173 0.001 0.001
0.173 0 0.001 0.174 0.001 0.001 0.174 0 0.001 0.175
0.001 0.001 0.175 0 0.001 0.176 0.001 0.001 0.176 0
0.001 0.177 0.001 0.001 0.177 0 0.001 0.178 0.001 0.001
0.178 0 0.001 0.179 0.001 0.001 0.179 0 0.001 0.18
0.001 0.001 0.18 0 0.001 0.181 0.001 0.001 0.181 0
0.001 0.182 0.001 0.001 0.182 0 0.001 0.183 0.001 0.001
0.183 0 0.001 0.184 0.001 0.001 0.184 0 0.001 0.185
0.001 0.001 0.185 0 0.001 0.186 0.001 0.001 0.186 0
0.001 0.187 0.001 0.001 0.187 0 0.001 0.188 0.001 0.001
0.188 0 0.001 0.189 0.001 0.001 0.189 0 0.001 0.19
0.001 0.001 0.19 0 0.001 0.191 0.001 0.001 0.191 0
0.001 0.192 0.001 0.001 0.192 0 0.001 0.193 0.001 0.001
0.193 0 0.001 0.194 0.001 0.001 0.194 0 0.001 0.195
0.001 0.001 0.195 0 0.001 0.196 0.001 0.001 0.196 0
0.001 0.197 0.001 0.001 0.197 0 0.001 0.198 0.001 0.001
0.198 0 0.001 0.199 0.001 0.001 0.199 0 0.001 0.2
0.001 0.001 0.2 0 0.001 0.201 0.001 0.001 0.201 0
0.001 0.202 0.001 0.001 0.202 0 0.001 0.203 0.001 0.001
0.203 0 0.001 0.204 0.001 0.001 0.204 0 0.001 0.205
0.001 0.001 0.205 0 0.001 0.206 0.001 0.001 0.206 0
0.001 0.207 0.001 0.001 0.207 0 0.001 0.208 0.001 0.001
0.208 0 0.001 0.209 0.001 0.001 0.209 0 0.001 0.21
0.001 0.001 0.21 0 0.001 0.211 0.001 0.001 0.211 0
0.001 0.212 0.001 0.001 0.212 0 0.001 0.213 0.001 0.001
0.213 0 0.001 0.214 0.001 0.001 0.214 0 0.001 0.215
0.001 0.001 0.215 0 0.001 0.216 0.001 0.001 0.216 0
0.001 0.217 0.001 0.001 0.217 0 0.001 0.218 0.001 0.001
0.218 0 0.001 0.219 0.001 0.001 0.219 0 0.001 0.22
0.001 0.001 0.22 0 0.001 0.221 0.001 0.001 0.221 0
0.001 0.222 0.001 0.001 0.222 0 0.001 0.223 0.001 0.001
0.223 0 0.001 0.224 0.001 0.001 0.224 0 0.001 0.225
0.001 0.001 0.225 0 0.001 0.226 0.001 0.001 0.226 0
0.001 0.227 0.001 0.001 0.227 0 0.001 0.228 0.001 0.001
0.228 0 0.001 0.229 0.001 0.001 0.229 0 0.001 0.23
0.001 0.001 0.23 0 0.001 0.231 0.001 0.001 0.231 0
0.001 0.232 0.001 0.001 0.232 0 0.001 0.233 0.001 0.001
0.233 0 0.001 0.234 0.001 0.001 0.234 0 0.001 0.235
0.001 0.001 0.235 0 0.001 0.236 0.001 0.001 0.236 0
0.001 0.237 0.001 0.001 0.237 0 0.001 0.238 0.001 0.001
0.238 0 0.001 0.239 0.001 0.001 0.239 0 0.001 0.24
0.001 0.001 0.24 0 0.001 0.241 0.001 0.001 0.241 0
0.001 0.242 0.001 0.001 0.242 0 0.001 0.243 0.001 0.001
0.243 0 0.001 0.244 0.001 0.001 0.244 0 0.001 0.245
0.001 0.001 0.245 0 0.001 0.246 0.001 0.001 0.246 0
0.001 0.247 0.001 0.001 0.247 0 0.001 0.248 0.001 0.001
0.248 0 0.001 0.249 0.001 0.001 0.249 0 0.001 0.25
0.001 0.001 0.25 0 0.001 0.251 0.001 0.001 0.251 0
0.001 0.252 0.001 0.001 0.252 0 0.001 0.253 0.001 0.001
0.253 0 0.001 0.254 0.001 0.001 0.254 0 0.001 0.255
0.001 0.001 0.255 0 0.001 0.256 0.001 0.001 0.256 0
0.001 0.257 0.001 0.001 0.257 0 0.001 0.258 0.001 0.001
0.258 0 0.001 0.259 0.001 0.001 0.259 0 0.001 0.26
0.001 0.001 0.26 0 0.001 0.261 0.001 0.001 0.261 0
0.001 0.262 0.001 0.001 0.262 0 0.001 0.263 0.001 0.001
0.263 0 0.001 0.264 0.001 0.001 0.264 0 0.001 0.265
0.001 0.001 0.265 0 0.001 0.266 0.001 0.001 0.266 0
0.001 0.267 0.001 0.001 0.267 0 0.001 0.268 0.001 0.001
0.268 0 0.001 0.269 0.001 0.001 0.269 0 0.001 0.27
0.001 0.001 0.27 0 0.001 0.271 0.001 0.001 0.271 0
0.001 0.272 0.001 0.001 0.272 0 0.001 0.273 0.001 0.001
0.273 0 0.001 0.274 0.001 0.001 0.274 0 0.001 0.275
0.001 0.001 0.275 0 0.001 0.276 0.001 0.001 0.276 0
0.001 0.277 0.001 0.001 0.277 0 0.001 0.278 0.001 0.001
0.278 0 0.001 0.279 0.001 0.001 0.279 0 0.001 0.28
0.001 0.001 0.28 0 0.001 0.281 0.001 0.001 0.281 0
0.001 0.282 0.001 0.001 0.282 0 0.001 0.283 0.001 0.001
0.283 0 0.001 0.284 0.001 0.001 0.284 0 0.001 0.285
0.001 0.001 0.285 0 0.001 0.286 0.001 0.001 0.286 0
0.001 0.287 0.001 0.001 0.287 0 0.001 0.288 0.001 0.001
0.288 0 0.001 0.289 0.001 0.001 0.289 0 0.001 0.29
0.001 0.001 0.29 0 0.001 0.291 0.001 0.001 0.291 0
0.001 0.292 0.001 0.001 0.292 0 0.001 0.293 0.001 0.001
0.293 0 0.001 0.294 0.001 0.001 0.294 0 0.001 0.295
0.001 0.001 0.295 0 0.001 0.296 0.001 0.001 0.296 0
0.001 0.297 0.001 0.001 0.297 0 0.001 0.298 0.001 0.001
0.298 0 0.001 0.299 0.001 0.001 0.299 0 0.001 0.3
0.001 0.001 0.3 0 0.001 0.301 0.001 0.001 0.301 0
0.001 0.302 0.001 0.001 0.302 0 0.001 0.303 0.001 0.001
0.303 0 0.001 0.304 0.001 0.001 0.304 0 0.001 0.305
0.001 0.001 0.305 0 0.001 0.306 0.001 0.001 0.306 0
0.001 0.307 0.001 0.001 0.307 0 0.001 0.308 0.001 0.001
0.308 0 0.001 0.309 0.001 0.001 0.309 0 0.001 0.31
0.001 0.001 0.31 0 0.001 0.311 0.001 0.001 0.311 0
[...]
POINT_DATA 8421
FIELD attributes 2
N1 1 8421 float
7.86355e-19 0 1.88411e-19 7.88508e-19 1.65144e-18 1.65312e-18 2.59936e-18 2.59831e-18 3.62898e-18 3.62252e-18 4.74204e-18
4.72791e-18 5.9418e-18 5.91816e-18 7.23186e-18 7.19695e-18 8.61625e-18 8.56832e-18 1.00994e-17 1.00367e-17 1.16863e-17
1.16068e-17 1.33819e-17 1.32837e-17 1.51917e-17 1.50727e-17 1.71213e-17 1.69791e-17 1.91763e-17 1.90085e-17 2.13626e-17
2.11667e-17 2.36863e-17 2.34595e-17 2.61533e-17 2.58928e-17 2.877e-17 2.84727e-17 3.15427e-17 3.12052e-17 3.44778e-17
3.40966e-17 3.75818e-17 3.71533e-17 4.08613e-17 4.03816e-17 4.43233e-17 4.37883e-17 4.79746e-17 4.73799e-17 5.18222e-17
5.11633e-17 5.58735e-17 5.51455e-17 6.01357e-17 5.93336e-17 6.46164e-17 6.37348e-17 6.93233e-17 6.83566e-17 7.42642e-17
7.32067e-17 7.94472e-17 7.82927e-17 8.48806e-17 8.36226e-17 9.05728e-17 8.92046e-17 9.65323e-17 9.50469e-17 1.02768e-16
1.01158e-16 1.09289e-16 1.07547e-16 1.16105e-16 1.14223e-16 1.23225e-16 1.21194e-16 1.30658e-16 1.2847e-16 1.38415e-16
1.36061e-16 1.46507e-16 1.43977e-16 1.54942e-16 1.52227e-16 1.63733e-16 1.60822e-16 1.7289e-16 1.69773e-16 1.82425e-16
1.7909e-16 1.92348e-16 1.88785e-16 2.02672e-16 1.98869e-16 2.1341e-16 2.09354e-16 2.24573e-16 2.20252e-16 2.36174e-16
2.31575e-16 2.48227e-16 2.43336e-16 2.60744e-16 2.55548e-16 2.73741e-16 2.68224e-16 2.87231e-16 2.81378e-16 3.01228e-16
2.95025e-16 3.15748e-16 3.09177e-16 3.30806e-16 3.23852e-16 3.46418e-16 3.39063e-16 3.626e-16 3.54826e-16 3.79369e-16
3.71158e-16 3.96742e-16 3.88075e-16 4.14736e-16 4.05594e-16 4.3337e-16 4.23733e-16 4.52662e-16 4.42509e-16 4.72631e-16
4.61941e-16 4.93298e-16 4.82048e-16 5.14682e-16 5.0285e-16 5.36803e-16 5.24366e-16 5.59684e-16 5.46617e-16 5.83346e-16
5.69625e-16 6.07812e-16 5.9341e-16 6.33105e-16 6.17996e-16 6.59249e-16 6.43406e-16 6.86267e-16 6.69663e-16 7.14187e-16
6.96792e-16 7.43033e-16 7.24817e-16 7.72831e-16 7.53765e-16 8.03611e-16 7.83662e-16 8.35399e-16 8.14535e-16 8.68224e-16
8.46413e-16 9.02117e-16 8.79323e-16 9.37108e-16 9.13296e-16 9.73229e-16 9.48363e-16 1.01051e-15 9.84553e-16 1.04899e-15
1.0219e-15 1.0887e-15 1.06044e-15 1.12967e-15 1.1002e-15 1.17194e-15 1.14122e-15 1.21555e-15 1.18354e-15 1.26054e-15
1.22719e-15 1.30695e-15 1.27221e-15 1.35481e-15 1.31864e-15 1.40417e-15 1.36652e-15 1.45507e-15 1.41589e-15 1.50756e-15
1.46679e-15 1.56168e-15 1.51928e-15 1.61748e-15 1.57338e-15 1.675e-15 1.62916e-15 1.7343e-15 1.68666e-15 1.79542e-15
1.74592e-15 1.85842e-15 1.807e-15 1.92336e-15 1.86995e-15 1.99028e-15 1.93482e-15 2.05924e-15 2.00167e-15 2.13031e-15
2.07056e-15 2.20353e-15 2.14154e-15 2.27899e-15 2.21467e-15 2.35673e-15 2.29001e-15 2.43682e-15 2.36763e-15 2.51933e-15
2.44759e-15 2.60433e-15 2.52996e-15 2.69189e-15 2.61481e-15 2.78209e-15 2.70221e-15 2.87499e-15 2.79222e-15 2.97067e-15
2.88493e-15 3.06922e-15 2.98042e-15 3.17072e-15 3.07875e-15 3.27524e-15 3.18001e-15 3.38288e-15 3.28429e-15 3.49372e-15
3.39167e-15 3.60785e-15 3.50224e-15 3.72538e-15 3.61608e-15 3.84639e-15 3.7333e-15 3.97098e-15 3.85399e-15 4.09925e-15
3.97824e-15 4.23131e-15 4.10616e-15 4.36727e-15 4.23784e-15 4.50724e-15 4.37341e-15 4.65132e-15 4.51296e-15 4.79964e-15
4.65661e-15 4.95231e-15 4.80447e-15 5.10946e-15 4.95667e-15 5.27121e-15 5.11333e-15 5.4377e-15 5.27456e-15 5.60905e-15
5.4405e-15 5.78541e-15 5.61129e-15 5.96691e-15 5.78706e-15 6.15369e-15 5.96794e-15 6.34592e-15 6.15409e-15 6.54373e-15
6.34564e-15 6.74729e-15 6.54276e-15 6.95676e-15 6.74559e-15 7.1723e-15 6.9543e-15 7.39408e-15 7.16905e-15 7.62227e-15
7.39002e-15 7.85706e-15 7.61736e-15 8.09863e-15 7.85126e-15 8.34717e-15 8.09191e-15 8.60287e-15 8.33949e-15 8.86592e-15
8.59419e-15 9.13655e-15 8.85622e-15 9.41494e-15 9.12577e-15 9.70133e-15 9.40305e-15 9.99593e-15 9.68829e-15 1.0299e-14
9.98169e-15 1.06107e-14 1.02835e-14 1.09313e-14 1.05939e-14 1.12611e-14 1.09132e-14 1.16003e-14 1.12416e-14 1.19491e-14
1.15793e-14 1.23079e-14 1.19267e-14 1.26769e-14 1.22839e-14 1.30564e-14 1.26513e-14 1.34467e-14 1.30292e-14 1.3848e-14
1.34177e-14 1.42607e-14 1.38173e-14 1.46851e-14 1.42281e-14 1.51216e-14 1.46506e-14 1.55703e-14 1.5085e-14 1.60317e-14
1.55317e-14 1.65061e-14 1.5991e-14 1.69939e-14 1.64632e-14 1.74954e-14 1.69487e-14 1.8011e-14 1.74478e-14 1.85411e-14
1.7961e-14 1.90861e-14 1.84885e-14 1.96463e-14 1.90309e-14 2.02222e-14 1.95884e-14 2.08143e-14 2.01615e-14 2.14229e-14
2.07507e-14 2.20484e-14 2.13563e-14 2.26915e-14 2.19787e-14 2.33524e-14 2.26185e-14 2.40317e-14 2.32761e-14 2.47299e-14
2.3952e-14 2.54476e-14 2.46467e-14 2.61851e-14 2.53606e-14 2.6943e-14 2.60943e-14 2.77219e-14 2.68483e-14 2.85224e-14
2.76231e-14 2.93449e-14 2.84193e-14 3.01902e-14 2.92375e-14 3.10588e-14 3.00783e-14 3.19512e-14 3.09422e-14 3.28682e-14
3.18298e-14 3.38104e-14 3.27418e-14 3.47784e-14 3.36788e-14 3.5773e-14 3.46415e-14 3.67948e-14 3.56306e-14 3.78445e-14
3.66467e-14 3.89228e-14 3.76905e-14 4.00306e-14 3.87628e-14 4.11686e-14 3.98643e-14 4.23375e-14 4.09957e-14 4.35382e-14
4.21579e-14 4.47714e-14 4.33517e-14 4.60381e-14 4.45777e-14 4.73391e-14 4.5837e-14 4.86753e-14 4.71304e-14 5.00476e-14
4.84586e-14 5.14568e-14 4.98227e-14 5.29041e-14 5.12236e-14 5.43903e-14 5.26621e-14 5.59164e-14 5.41392e-14 5.74834e-14
5.5656e-14 5.90925e-14 5.72135e-14 6.07446e-14 5.88126e-14 6.24409e-14 6.04545e-14 6.41825e-14 6.21402e-14 6.59705e-14
6.38708e-14 6.78061e-14 6.56475e-14 6.96906e-14 6.74715e-14 7.1625e-14 6.93438e-14 7.36107e-14 7.12658e-14 7.5649e-14
7.32387e-14 7.77412e-14 7.52637e-14 7.98886e-14 7.73422e-14 8.20927e-14 7.94755e-14 8.43548e-14 8.16649e-14 8.66763e-14
8.39119e-14 8.90588e-14 8.62179e-14 9.15037e-14 8.85843e-14 9.40126e-14 9.10126e-14 9.65871e-14 9.35044e-14 9.92287e-14
9.60612e-14 1.01939e-13 9.86846e-14 1.0472e-13 1.01376e-13 1.07574e-13 1.04138e-13 1.10501e-13 1.06971e-13 1.13504e-13
1.09878e-13 1.16585e-13 1.12859e-13 1.19745e-13 1.15918e-13 1.22987e-13 1.19056e-13 1.26312e-13 1.22274e-13 1.29722e-13
1.25575e-13 1.3322e-13 1.2896e-13 1.36808e-13 1.32433e-13 1.40487e-13 1.35994e-13 1.4426e-13 1.39646e-13 1.4813e-13
1.43391e-13 1.52098e-13 1.47231e-13 1.56166e-13 1.51169e-13 1.60338e-13 1.55206e-13 1.64615e-13 1.59346e-13 1.69001e-13
1.6359e-13 1.73497e-13 1.67942e-13 1.78106e-13 1.72403e-13 1.82831e-13 1.76976e-13 1.87675e-13 1.81664e-13 1.9264e-13
1.86469e-13 1.97729e-13 1.91395e-13 2.02945e-13 1.96443e-13 2.08292e-13 2.01617e-13 2.13771e-13 2.0692e-13 2.19386e-13
2.12354e-13 2.2514e-13 2.17923e-13 2.31036e-13 2.2363e-13 2.37078e-13 2.29477e-13 2.43269e-13 2.35468e-13 2.49612e-13
2.41607e-13 2.56111e-13 2.47897e-13 2.62769e-13 2.5434e-13 2.69589e-13 2.60941e-13 2.76576e-13 2.67703e-13 2.83733e-13
2.7463e-13 2.91064e-13 2.81725e-13 2.98573e-13 2.88992e-13 3.06264e-13 2.96435e-13 3.1414e-13 3.04057e-13 3.22206e-13
3.11863e-13 3.30466e-13 3.19857e-13 3.38925e-13 3.28043e-13 3.47586e-13 3.36425e-13 3.56454e-13 3.45008e-13 3.65534e-13
3.53794e-13 3.74829e-13 3.6279e-13 3.84345e-13 3.72e-13 3.94087e-13 3.81428e-13 4.04059e-13 3.91079e-13 4.14267e-13
4.00957e-13 4.24714e-13 4.11068e-13 4.35407e-13 4.21416e-13 4.46351e-13 4.32006e-13 4.5755e-13 4.42844e-13 4.6901e-13
4.53935e-13 4.80737e-13 4.65284e-13 4.92736e-13 4.76896e-13 5.05013e-13 4.88777e-13 5.17574e-13 5.00932e-13 5.30424e-13
5.13367e-13 5.43569e-13 5.26088e-13 5.57015e-13 5.39101e-13 5.70769e-13 5.52411e-13 5.84837e-13 5.66025e-13 5.99224e-13
5.79948e-13 6.13938e-13 5.94187e-13 6.28985e-13 6.08748e-13 6.44371e-13 6.23637e-13 6.60103e-13 6.38861e-13 6.76189e-13
6.54427e-13 6.92634e-13 6.70341e-13 7.09445e-13 6.8661e-13 7.26631e-13 7.03241e-13 7.44198e-13 7.2024e-13 7.62153e-13
7.37615e-13 7.80503e-13 7.55373e-13 7.99257e-13 7.73521e-13 8.18421e-13 7.92065e-13 8.38003e-13 8.11015e-13 8.58011e-13
8.30376e-13 8.78452e-13 8.50157e-13 8.99335e-13 8.70364e-13 9.20667e-13 8.91007e-13 9.42456e-13 9.12091e-13 9.6471e-13
9.33626e-13 9.87437e-13 9.55618e-13 1.01065e-12 9.78075e-13 1.03434e-12 1.00101e-12 1.05854e-12 1.02442e-12 1.08324e-12
1.04832e-12 1.10845e-12 1.07272e-12 1.13419e-12 1.09762e-12 1.16045e-12 1.12304e-12 1.18726e-12 1.14897e-12 1.21461e-12
1.17544e-12 1.24251e-12 1.20244e-12 1.27098e-12 1.22998e-12 1.30001e-12 1.25807e-12 1.32962e-12 1.28673e-12 1.35982e-12
1.31595e-12 1.39061e-12 1.34574e-12 1.422e-12 1.37611e-12 1.45399e-12 1.40707e-12 1.4866e-12 1.43862e-12 1.51982e-12
1.47076e-12 1.55367e-12 1.50352e-12 1.58816e-12 1.53688e-12 1.62327e-12 1.57085e-12 1.65903e-12 1.60545e-12 1.69543e-12
1.64067e-12 1.73248e-12 1.67651e-12 1.77017e-12 1.71298e-12 1.80852e-12 1.75009e-12 1.84752e-12 1.78782e-12 1.88718e-12
1.82618e-12 1.92748e-12 1.86518e-12 1.96844e-12 1.9048e-12 2.01004e-12 1.94504e-12 2.05228e-12 1.98591e-12 2.09515e-12
2.02739e-12 2.13866e-12 2.06947e-12 2.18277e-12 2.11215e-12 2.2275e-12 2.15541e-12 2.27281e-12 2.19924e-12 2.31869e-12
2.24362e-12 2.36513e-12 2.28854e-12 2.41209e-12 2.33396e-12 2.45956e-12 2.37988e-12 2.50751e-12 2.42625e-12 2.55589e-12
2.47304e-12 2.60468e-12 2.52023e-12 2.65383e-12 2.56776e-12 2.70329e-12 2.61559e-12 2.75301e-12 2.66367e-12 2.80294e-12
2.71194e-12 2.85299e-12 2.76034e-12 2.90312e-12 2.8088e-12 2.95322e-12 2.85723e-12 3.00321e-12 2.90556e-12 3.05299e-12
2.95368e-12 3.10246e-12 3.00149e-12 3.15149e-12 3.04887e-12 3.19996e-12 3.0957e-12 3.24771e-12 3.14183e-12 3.29458e-12
3.18711e-12 3.34041e-12 3.23137e-12 3.385e-12 3.27442e-12 3.42815e-12 3.31607e-12 3.46962e-12 3.35609e-12 3.50917e-12
3.39425e-12 3.54654e-12 3.43028e-12 3.58143e-12 3.46391e-12 3.61353e-12 3.49483e-12 3.64251e-12 3.52273e-12 3.66802e-12
3.54727e-12 3.6897e-12 3.5681e-12 3.70716e-12 3.58486e-12 3.72005e-12 3.59719e-12 3.72799e-12 3.60478e-12 3.63981e-12
3.73068e-12 7.73043e-19 0 1.62604e-18 2.5632e-18 3.58521e-18 4.69355e-18 5.89087e-18 7.18046e-18 8.56616e-18
1.00524e-17 1.16439e-17 1.3346e-17 1.51639e-17 1.71034e-17 1.91703e-17 2.13706e-17 2.37103e-17 2.61958e-17 2.88332e-17
3.16292e-17 3.45903e-17 3.77231e-17 4.10346e-17 4.45316e-17 4.82214e-17 5.21111e-17 5.62081e-17 6.05201e-17 6.50548e-17
6.98201e-17 7.4824e-17 8.0075e-17 8.55814e-17 9.1352e-17 9.73956e-17 1.03721e-16 1.10339e-16 1.17257e-16 1.24486e-16
1.32036e-16 1.39917e-16 1.48139e-16 1.56714e-16 1.65653e-16 1.74966e-16 1.84665e-16 1.94763e-16 2.05272e-16 2.16203e-16
2.27571e-16 2.39388e-16 2.51667e-16 2.64423e-16 2.7767e-16 2.91422e-16 3.05695e-16 3.20503e-16 3.35864e-16 3.51792e-16
3.68306e-16 3.85421e-16 4.03156e-16 4.21528e-16 4.40557e-16 4.60262e-16 4.80661e-16 5.01776e-16 5.23627e-16 5.46235e-16
5.69622e-16 5.93812e-16 6.18827e-16 6.4469e-16 6.71427e-16 6.99063e-16 7.27623e-16 7.57134e-16 7.87624e-16 8.1912e-16
8.51652e-16 8.8525e-16 9.19943e-16 9.55764e-16 9.92745e-16 1.03092e-15 1.07032e-15 1.11099e-15 1.15295e-15 1.19625e-15
1.24092e-15 1.28701e-15 1.33455e-15 1.38359e-15 1.43417e-15 1.48633e-15 1.54011e-15 1.59558e-15 1.65276e-15 1.71172e-15
1.7725e-15 1.83516e-15 1.89974e-15 1.96631e-15 2.03492e-15 2.10563e-15 2.1785e-15 2.25358e-15 2.33096e-15 2.41068e-15
2.49281e-15 2.57743e-15 2.66461e-15 2.75441e-15 2.84692e-15 2.94221e-15 3.04036e-15 3.14144e-15 3.24556e-15 3.35278e-15
3.4632e-15 3.57691e-15 3.69401e-15 3.81458e-15 3.93873e-15 4.06656e-15 4.19817e-15 4.33367e-15 4.47318e-15 4.61679e-15
4.76464e-15 4.91683e-15 5.07349e-15 5.23476e-15 5.40075e-15 5.5716e-15 5.74744e-15 5.92843e-15 6.11469e-15 6.30639e-15
6.50367e-15 6.70669e-15 6.91561e-15 7.13059e-15 7.35181e-15 7.57944e-15 7.81365e-15 8.05464e-15 8.30259e-15 8.55769e-15
8.82014e-15 9.09016e-15 9.36794e-15 9.6537e-15 9.94768e-15 1.02501e-14 1.05611e-14 1.08811e-14 1.12102e-14 1.15488e-14
1.1897e-14 1.22551e-14 1.26234e-14 1.30022e-14 1.33918e-14 1.37924e-14 1.42044e-14 1.46281e-14 1.50638e-14 1.55118e-14
1.59725e-14 1.64462e-14 1.69333e-14 1.7434e-14 1.79489e-14 1.84783e-14 1.90225e-14 1.9582e-14 2.01572e-14 2.07485e-14
2.13563e-14 2.19811e-14 2.26234e-14 2.32836e-14 2.39622e-14 2.46597e-14 2.53766e-14 2.61133e-14 2.68706e-14 2.76488e-14
2.84485e-14 2.92704e-14 3.0115e-14 3.09829e-14 3.18747e-14 3.2791e-14 3.37326e-14 3.47e-14 3.5694e-14 3.67152e-14
3.77643e-14 3.88422e-14 3.99494e-14 4.10869e-14 4.22554e-14 4.34557e-14 4.46886e-14 4.59549e-14 4.72556e-14 4.85916e-14
4.99636e-14 5.13727e-14 5.28199e-14 5.4306e-14 5.58321e-14 5.73993e-14 5.90085e-14 6.06608e-14 6.23574e-14 6.40993e-14
6.58877e-14 6.77238e-14 6.96088e-14 7.1544e-14 7.35305e-14 7.55697e-14 7.76629e-14 7.98114e-14 8.20167e-14 8.42802e-14
8.66032e-14 8.89873e-14 9.1434e-14 9.39449e-14 9.65214e-14 9.91654e-14 1.01878e-13 1.04662e-13 1.07518e-13 1.10448e-13
1.13455e-13 1.16539e-13 1.19703e-13 1.22948e-13 1.26278e-13 1.29693e-13 1.33195e-13 1.36788e-13 1.40473e-13 1.44251e-13
1.48127e-13 1.52101e-13 1.56176e-13 1.60355e-13 1.6464e-13 1.69033e-13 1.73537e-13 1.78155e-13 1.82889e-13 1.87742e-13
1.92717e-13 1.97817e-13 2.03044e-13 2.08402e-13 2.13893e-13 2.1952e-13 2.25288e-13 2.31198e-13 2.37255e-13 2.43461e-13
2.4982e-13 2.56335e-13 2.6301e-13 2.69849e-13 2.76855e-13 2.84032e-13 2.91384e-13 2.98914e-13 3.06627e-13 3.14527e-13
3.22618e-13 3.30904e-13 3.39389e-13 3.48077e-13 3.56974e-13 3.66084e-13 3.75411e-13 3.8496e-13 3.94736e-13 4.04743e-13
4.14987e-13 4.25473e-13 4.36206e-13 4.47191e-13 4.58433e-13 4.69938e-13 4.81711e-13 4.93759e-13 5.06086e-13 5.18698e-13
5.31602e-13 5.44803e-13 5.58308e-13 5.72122e-13 5.86252e-13 6.00705e-13 6.15486e-13 6.30603e-13 6.46062e-13 6.6187e-13
6.78033e-13 6.9456e-13 7.11456e-13 7.28729e-13 7.46386e-13 7.64435e-13 7.82882e-13 8.01737e-13 8.21006e-13 8.40696e-13
8.60817e-13 8.81375e-13 9.02378e-13 9.23836e-13 9.45755e-13 9.68143e-13 9.9101e-13 1.01436e-12 1.03821e-12 1.06256e-12
1.08742e-12 1.11281e-12 1.13872e-12 1.16516e-12 1.19215e-12 1.2197e-12 1.2478e-12 1.27648e-12 1.30573e-12 1.33557e-12
1.36601e-12 1.39704e-12 1.42868e-12 1.46094e-12 1.49383e-12 1.52734e-12 1.56149e-12 1.59628e-12 1.63172e-12 1.66782e-12
1.70457e-12 1.74199e-12 1.78007e-12 1.81882e-12 1.85825e-12 1.89834e-12 1.93911e-12 1.98055e-12 2.02266e-12 2.06543e-12
2.10886e-12 2.15295e-12 2.19769e-12 2.24306e-12 2.28905e-12 2.33565e-12 2.38285e-12 2.43061e-12 2.47893e-12 2.52776e-12
2.57709e-12 2.62688e-12 2.67709e-12 2.72767e-12 2.77858e-12 2.82977e-12 2.88117e-12 2.93272e-12 2.98434e-12 3.03595e-12
3.08746e-12 3.13876e-12 3.18976e-12 3.24032e-12 3.29031e-12 3.33958e-12 3.38797e-12 3.4353e-12 3.48138e-12 3.526e-12
3.56891e-12 3.60988e-12 3.64862e-12 3.68483e-12 3.7182e-12 3.74838e-12 3.775e-12 3.79769e-12 3.81602e-12 3.82961e-12
3.83803e-12 3.8409e-12 7.58632e-19 0 1.59535e-18 2.51506e-18 3.52071e-18 4.61469e-18 5.79969e-18 7.07889e-18
8.45604e-18 9.93543e-18 1.15218e-17 1.32203e-17 1.50363e-17 1.69754e-17 1.90436e-17 2.12468e-17 2.35912e-17 2.60831e-17
2.87289e-17 3.15352e-17 3.45087e-17 3.76561e-17 4.09845e-17 4.45008e-17 4.82125e-17 5.21269e-17 5.62515e-17 6.05941e-17
6.51626e-17 6.99652e-17 7.50101e-17 8.03057e-17 8.58609e-17 9.16844e-17 9.77854e-17 1.04173e-16 1.10857e-16 1.17848e-16
1.25154e-16 1.32787e-16 1.40757e-16 1.49074e-16 1.57751e-16 1.66797e-16 1.76225e-16 1.86047e-16 1.96275e-16 2.06921e-16
2.17998e-16 2.29519e-16 2.41499e-16 2.5395e-16 2.66887e-16 2.80325e-16 2.94279e-16 3.08763e-16 3.23794e-16 3.39388e-16
3.55562e-16 3.72333e-16 3.89718e-16 4.07735e-16 4.26403e-16 4.45742e-16 4.65769e-16 4.86507e-16 5.07975e-16 5.30194e-16
5.53187e-16 5.76975e-16 6.01583e-16 6.27033e-16 6.5335e-16 6.80559e-16 7.08686e-16 7.37757e-16 7.678e-16 7.98842e-16
8.30912e-16 8.6404e-16 8.98257e-16 9.33593e-16 9.7008e-16 1.00775e-15 1.04664e-15 1.08679e-15 1.12822e-15 1.17099e-15
1.21511e-15 1.26064e-15 1.30762e-15 1.35608e-15 1.40607e-15 1.45763e-15 1.51081e-15 1.56565e-15 1.62221e-15 1.68052e-15
1.74064e-15 1.80263e-15 1.86653e-15 1.9324e-15 2.0003e-15 2.07028e-15 2.14241e-15 2.21674e-15 2.29334e-15 2.37228e-15
2.45361e-15 2.53741e-15 2.62375e-15 2.7127e-15 2.80434e-15 2.89873e-15 2.99597e-15 3.09613e-15 3.19929e-15 3.30554e-15
3.41497e-15 3.52767e-15 3.64372e-15 3.76324e-15 3.8863e-15 4.01302e-15 4.1435e-15 4.27785e-15 4.41616e-15 4.55857e-15
4.70517e-15 4.8561e-15 5.01147e-15 5.1714e-15 5.33604e-15 5.5055e-15 5.67992e-15 5.85946e-15 6.04424e-15 6.23441e-15
6.43013e-15 6.63156e-15 6.83885e-15 7.05216e-15 7.27168e-15 7.49756e-15 7.72998e-15 7.96914e-15 8.21522e-15 8.4684e-15
8.7289e-15 8.9969e-15 9.27263e-15 9.5563e-15 9.84811e-15 1.01483e-14 1.04571e-14 1.07748e-14 1.11016e-14 1.14377e-14
1.17834e-14 1.2139e-14 1.25047e-14 1.28809e-14 1.32678e-14 1.36656e-14 1.40748e-14 1.44956e-14 1.49283e-14 1.53733e-14
1.58309e-14 1.63014e-14 1.67852e-14 1.72826e-14 1.77941e-14 1.832e-14 1.88607e-14 1.94165e-14 1.9988e-14 2.05755e-14
2.11795e-14 2.18003e-14 2.24386e-14 2.30946e-14 2.3769e-14 2.44621e-14 2.51745e-14 2.59068e-14 2.66594e-14 2.74329e-14
2.82278e-14 2.90448e-14 2.98843e-14 3.0747e-14 3.16336e-14 3.25446e-14 3.34807e-14 3.44425e-14 3.54307e-14 3.64461e-14
3.74893e-14 3.85611e-14 3.96622e-14 4.07933e-14 4.19554e-14 4.31491e-14 4.43752e-14 4.56348e-14 4.69285e-14 4.82573e-14
4.96221e-14 5.10238e-14 5.24634e-14 5.39418e-14 5.54601e-14 5.70192e-14 5.86203e-14 6.02643e-14 6.19525e-14 6.36858e-14
6.54655e-14 6.72927e-14 6.91686e-14 7.10945e-14 7.30716e-14 7.51013e-14 7.71848e-14 7.93234e-14 8.15186e-14 8.37718e-14
8.60845e-14 8.8458e-14 9.0894e-14 9.33939e-14 9.59594e-14 9.85921e-14 1.01294e-13 1.04066e-13 1.0691e-13 1.09828e-13
1.12822e-13 1.15894e-13 1.19046e-13 1.22279e-13 1.25595e-13 1.28997e-13 1.32487e-13 1.36066e-13 1.39737e-13 1.43502e-13
1.47364e-13 1.51324e-13 1.55385e-13 1.5955e-13 1.6382e-13 1.68198e-13 1.72688e-13 1.77291e-13 1.8201e-13 1.86848e-13
1.91808e-13 1.96892e-13 2.02103e-13 2.07445e-13 2.12921e-13 2.18532e-13 2.24284e-13 2.30178e-13 2.36218e-13 2.42408e-13
2.48751e-13 2.5525e-13 2.61909e-13 2.68731e-13 2.75721e-13 2.82881e-13 2.90216e-13 2.9773e-13 3.05427e-13 3.1331e-13
3.21385e-13 3.29654e-13 3.38123e-13 3.46796e-13 3.55677e-13 3.64771e-13 3.74082e-13 3.83616e-13 3.93376e-13 4.03369e-13
4.13598e-13 4.24069e-13 4.34788e-13 4.45759e-13 4.56987e-13 4.68479e-13 4.8024e-13 4.92275e-13 5.0459e-13 5.17191e-13
5.30085e-13 5.43276e-13 5.56771e-13 5.70577e-13 5.84699e-13 5.99144e-13 6.13919e-13 6.29031e-13 6.44485e-13 6.60289e-13
6.7645e-13 6.92975e-13 7.09871e-13 7.27145e-13 7.44805e-13 7.62858e-13 7.81311e-13 8.00173e-13 8.1945e-13 8.39151e-13
8.59284e-13 8.79857e-13 9.00877e-13 9.22353e-13 9.44293e-13 9.66705e-13 9.89598e-13 1.01298e-12 1.03686e-12 1.06125e-12
1.08615e-12 1.11157e-12 1.13753e-12 1.16402e-12 1.19107e-12 1.21867e-12 1.24684e-12 1.27558e-12 1.30491e-12 1.33483e-12
1.36535e-12 1.39647e-12 1.42822e-12 1.46058e-12 1.49358e-12 1.52721e-12 1.56149e-12 1.59643e-12 1.63202e-12 1.66827e-12
1.7052e-12 1.7428e-12 1.78108e-12 1.82004e-12 1.85969e-12 1.90003e-12 1.94105e-12 1.98277e-12 2.02518e-12 2.06827e-12
2.11204e-12 2.1565e-12 2.20163e-12 2.24742e-12 2.29386e-12 2.34095e-12 2.38866e-12 2.43699e-12 2.4859e-12 2.53538e-12
2.5854e-12 2.63593e-12 2.68694e-12 2.73838e-12 2.79022e-12 2.8424e-12 2.89488e-12 2.94758e-12 3.00044e-12 3.0534e-12
3.10635e-12 3.15922e-12 3.2119e-12 3.26427e-12 3.31622e-12 3.36761e-12 3.41828e-12 3.46807e-12 3.51681e-12 3.56429e-12
3.61031e-12 3.65461e-12 3.69695e-12 3.73704e-12 3.77458e-12 3.80924e-12 3.84065e-12 3.86845e-12 3.8922e-12 3.91149e-12
3.92585e-12 3.93481e-12 3.93787e-12 7.44358e-19 0 1.56455e-18 2.46551e-18 3.45153e-18 4.52619e-18 5.69283e-18
6.95502e-18 8.31665e-18 9.78207e-18 1.1356e-17 1.30436e-17 1.48502e-17 1.67815e-17 1.88432e-17 2.10414e-17 2.33823e-17
2.5872e-17 2.85173e-17 3.13245e-17 3.43004e-17 3.7452e-17 4.07863e-17 4.43105e-17 4.80319e-17 5.1958e-17 5.60965e-17
6.04554e-17 6.50427e-17 6.98665e-17 7.49355e-17 8.02581e-17 8.58433e-17 9.17001e-17 9.78379e-17 1.04266e-16 1.10994e-16
1.18033e-16 1.25391e-16 1.33081e-16 1.41112e-16 1.49496e-16 1.58243e-16 1.67366e-16 1.76876e-16 1.86785e-16 1.97107e-16
2.07852e-16 2.19036e-16 2.3067e-16 2.4277e-16 2.55348e-16 2.6842e-16 2.82e-16 2.96104e-16 3.10748e-16 3.25947e-16
3.41718e-16 3.58077e-16 3.75044e-16 3.92634e-16 4.10867e-16 4.29762e-16 4.49338e-16 4.69615e-16 4.90613e-16 5.12354e-16