/*--------------------------------*- C++ -*----------------------------------*\
  =========                 |
  \\      /  F ield         | OpenFOAM: The Open Source CFD Toolbox
   \\    /   O peration     | Website:  https://openfoam.org
    \\  /    A nd           | Version:  dev
     \\/     M anipulation  |
\*---------------------------------------------------------------------------*/
FoamFile
{
    format      ascii;
    class       volScalarField;
    location    "0.8";
    object      Exp1;
}
// * * * * * * * * * * * * * * * * * * * * * * * * * * * * * * * * * * * * * //

dimensions      [0 0 0 0 0 0 0];

internalField   uniform 0;

boundaryField
{
    frontAndBack
    {
        type            empty;
    }
    inlet
    {
        type            calculated;
        value           uniform 0;
    }
    outlet
    {
        type            calculated;
        value           uniform 0;
    }
    substrate
    {
        type            calculated;
        value           nonuniform List<scalar> 
400
(
4.98781e-20
1.58864e-19
2.78767e-19
4.09085e-19
5.49905e-19
7.01717e-19
8.64999e-19
1.04025e-18
1.22804e-18
1.42897e-18
1.6437e-18
1.8729e-18
2.11729e-18
2.37759e-18
2.65455e-18
2.94893e-18
3.26152e-18
3.5931e-18
3.94448e-18
4.31648e-18
4.70992e-18
5.12567e-18
5.56457e-18
6.02751e-18
6.51538e-18
7.02909e-18
7.56958e-18
8.1378e-18
8.73472e-18
9.36134e-18
1.00187e-17
1.07078e-17
1.14297e-17
1.21855e-17
1.29763e-17
1.38033e-17
1.46676e-17
1.55705e-17
1.65131e-17
1.74968e-17
1.85227e-17
1.95923e-17
2.07068e-17
2.18677e-17
2.30763e-17
2.43343e-17
2.56429e-17
2.70038e-17
2.84186e-17
2.98888e-17
3.14161e-17
3.30023e-17
3.4649e-17
3.6358e-17
3.81313e-17
3.99706e-17
4.1878e-17
4.38554e-17
4.59048e-17
4.80284e-17
5.02284e-17
5.25069e-17
5.48662e-17
5.73087e-17
5.98368e-17
6.2453e-17
6.51598e-17
6.79598e-17
7.08557e-17
7.38503e-17
7.69465e-17
8.01471e-17
8.34552e-17
8.68739e-17
9.04062e-17
9.40556e-17
9.78254e-17
1.01719e-16
1.0574e-16
1.09892e-16
1.14179e-16
1.18604e-16
1.23173e-16
1.27888e-16
1.32753e-16
1.37775e-16
1.42956e-16
1.48301e-16
1.53815e-16
1.59503e-16
1.6537e-16
1.71421e-16
1.77661e-16
1.84096e-16
1.90732e-16
1.97573e-16
2.04626e-16
2.11897e-16
2.19392e-16
2.27118e-16
2.3508e-16
2.43287e-16
2.51745e-16
2.60461e-16
2.69443e-16
2.78697e-16
2.88232e-16
2.98057e-16
3.08178e-16
3.18605e-16
3.29347e-16
3.40411e-16
3.51808e-16
3.63547e-16
3.75638e-16
3.88091e-16
4.00915e-16
4.14122e-16
4.27723e-16
4.41728e-16
4.56149e-16
4.70999e-16
4.86288e-16
5.0203e-16
5.18237e-16
5.34923e-16
5.52101e-16
5.69785e-16
5.87989e-16
6.06728e-16
6.26017e-16
6.45872e-16
6.66309e-16
6.87343e-16
7.08992e-16
7.31274e-16
7.54205e-16
7.77804e-16
8.0209e-16
8.27083e-16
8.52801e-16
8.79265e-16
9.06497e-16
9.34517e-16
9.63348e-16
9.93012e-16
1.02353e-15
1.05493e-15
1.08724e-15
1.12048e-15
1.15467e-15
1.18984e-15
1.22603e-15
1.26325e-15
1.30154e-15
1.34092e-15
1.38143e-15
1.4231e-15
1.46595e-15
1.51003e-15
1.55537e-15
1.60199e-15
1.64994e-15
1.69925e-15
1.74996e-15
1.80211e-15
1.85574e-15
1.91088e-15
1.96758e-15
2.02588e-15
2.08583e-15
2.14747e-15
2.21084e-15
2.27599e-15
2.34298e-15
2.41184e-15
2.48264e-15
2.55542e-15
2.63023e-15
2.70714e-15
2.78619e-15
2.86745e-15
2.95098e-15
3.03683e-15
3.12507e-15
3.21575e-15
3.30896e-15
3.40475e-15
3.50319e-15
3.60436e-15
3.70831e-15
3.81514e-15
3.92492e-15
4.03771e-15
4.15361e-15
4.2727e-15
4.39505e-15
4.52076e-15
4.64991e-15
4.78259e-15
4.91889e-15
5.05892e-15
5.20276e-15
5.35052e-15
5.50229e-15
5.65818e-15
5.81831e-15
5.98277e-15
6.15168e-15
6.32515e-15
6.50331e-15
6.68627e-15
6.87415e-15
7.06709e-15
7.2652e-15
7.46863e-15
7.67751e-15
7.89197e-15
8.11216e-15
8.33823e-15
8.57031e-15
8.80857e-15
9.05316e-15
9.30424e-15
9.56197e-15
9.82652e-15
1.00981e-14
1.03768e-14
1.06628e-14
1.09564e-14
1.12576e-14
1.15668e-14
1.18841e-14
1.22097e-14
1.25438e-14
1.28865e-14
1.32383e-14
1.35991e-14
1.39693e-14
1.43491e-14
1.47388e-14
1.51385e-14
1.55485e-14
1.59691e-14
1.64005e-14
1.68429e-14
1.72967e-14
1.77622e-14
1.82395e-14
1.87289e-14
1.92309e-14
1.97456e-14
2.02733e-14
2.08144e-14
2.13693e-14
2.19381e-14
2.25212e-14
2.3119e-14
2.37319e-14
2.43601e-14
2.5004e-14
2.5664e-14
2.63404e-14
2.70337e-14
2.77442e-14
2.84723e-14
2.92185e-14
2.9983e-14
3.07665e-14
3.15692e-14
3.23916e-14
3.32342e-14
3.40974e-14
3.49816e-14
3.58875e-14
3.68153e-14
3.77657e-14
3.87391e-14
3.97361e-14
4.07571e-14
4.18026e-14
4.28733e-14
4.39697e-14
4.50923e-14
4.62417e-14
4.74184e-14
4.86232e-14
4.98565e-14
5.1119e-14
5.24113e-14
5.37341e-14
5.50879e-14
5.64735e-14
5.78916e-14
5.93427e-14
6.08276e-14
6.23471e-14
6.39017e-14
6.54923e-14
6.71196e-14
6.87843e-14
7.04872e-14
7.22291e-14
7.40108e-14
7.5833e-14
7.76966e-14
7.96025e-14
8.15514e-14
8.35442e-14
8.55817e-14
8.76649e-14
8.97947e-14
9.19718e-14
9.41973e-14
9.6472e-14
9.8797e-14
1.01173e-13
1.03601e-13
1.06082e-13
1.08618e-13
1.11208e-13
1.13854e-13
1.16558e-13
1.19319e-13
1.22139e-13
1.2502e-13
1.27961e-13
1.30965e-13
1.34032e-13
1.37163e-13
1.40359e-13
1.43622e-13
1.46952e-13
1.5035e-13
1.53818e-13
1.57356e-13
1.60965e-13
1.64647e-13
1.68403e-13
1.72233e-13
1.76138e-13
1.80119e-13
1.84178e-13
1.88315e-13
1.9253e-13
1.96825e-13
2.01201e-13
2.05657e-13
2.10195e-13
2.14816e-13
2.19519e-13
2.24305e-13
2.29174e-13
2.34127e-13
2.39163e-13
2.44283e-13
2.49486e-13
2.54772e-13
2.6014e-13
2.6559e-13
2.7112e-13
2.76731e-13
2.82419e-13
2.88183e-13
2.94022e-13
2.99932e-13
3.05912e-13
3.11958e-13
3.18067e-13
3.24234e-13
3.30455e-13
3.36725e-13
3.43038e-13
3.49388e-13
3.55767e-13
3.62167e-13
3.68579e-13
3.74995e-13
3.81401e-13
3.87788e-13
3.9414e-13
4.00444e-13
4.06684e-13
4.12841e-13
4.18896e-13
4.24828e-13
4.30613e-13
4.36226e-13
4.41639e-13
4.46821e-13
4.5174e-13
4.5636e-13
4.60642e-13
4.64546e-13
4.68028e-13
4.71042e-13
4.73541e-13
4.75478e-13
4.76807e-13
4.77486e-13
)
;
    }
    Wall
    {
        type            calculated;
        value           nonuniform List<scalar> 
400
(
4.98771e-20
1.58861e-19
2.78761e-19
4.09077e-19
5.49893e-19
7.017e-19
8.64976e-19
1.04022e-18
1.228e-18
1.42893e-18
1.64365e-18
1.87284e-18
2.11721e-18
2.3775e-18
2.65445e-18
2.94882e-18
3.26139e-18
3.59295e-18
3.94432e-18
4.3163e-18
4.70973e-18
5.12545e-18
5.56434e-18
6.02726e-18
6.51511e-18
7.0288e-18
7.56927e-18
8.13747e-18
8.73437e-18
9.36097e-18
1.00183e-17
1.07073e-17
1.14292e-17
1.2185e-17
1.29758e-17
1.38028e-17
1.46671e-17
1.55699e-17
1.65125e-17
1.74961e-17
1.8522e-17
1.95916e-17
2.07061e-17
2.18669e-17
2.30755e-17
2.43334e-17
2.5642e-17
2.70029e-17
2.84176e-17
2.98878e-17
3.14151e-17
3.30012e-17
3.46478e-17
3.63568e-17
3.813e-17
3.99693e-17
4.18766e-17
4.3854e-17
4.59033e-17
4.80269e-17
5.02268e-17
5.25052e-17
5.48645e-17
5.73069e-17
5.9835e-17
6.24511e-17
6.51578e-17
6.79577e-17
7.08536e-17
7.38481e-17
7.69442e-17
8.01448e-17
8.34528e-17
8.68713e-17
9.04036e-17
9.40529e-17
9.78226e-17
1.01716e-16
1.05737e-16
1.09889e-16
1.14176e-16
1.18601e-16
1.23169e-16
1.27884e-16
1.3275e-16
1.37771e-16
1.42952e-16
1.48297e-16
1.53811e-16
1.59499e-16
1.65366e-16
1.71416e-16
1.77656e-16
1.84091e-16
1.90726e-16
1.97567e-16
2.0462e-16
2.11891e-16
2.19386e-16
2.27111e-16
2.35074e-16
2.4328e-16
2.51738e-16
2.60454e-16
2.69435e-16
2.78689e-16
2.88224e-16
2.98048e-16
3.0817e-16
3.18596e-16
3.29337e-16
3.40402e-16
3.51799e-16
3.63537e-16
3.75628e-16
3.8808e-16
4.00904e-16
4.14111e-16
4.27711e-16
4.41716e-16
4.56137e-16
4.70986e-16
4.86275e-16
5.02016e-16
5.18223e-16
5.34909e-16
5.52086e-16
5.69769e-16
5.87973e-16
6.06712e-16
6.26001e-16
6.45855e-16
6.66291e-16
6.87325e-16
7.08973e-16
7.31254e-16
7.54185e-16
7.77784e-16
8.02069e-16
8.27061e-16
8.52778e-16
8.79242e-16
9.06473e-16
9.34493e-16
9.63323e-16
9.92986e-16
1.02351e-15
1.05491e-15
1.08721e-15
1.12045e-15
1.15464e-15
1.18981e-15
1.22599e-15
1.26321e-15
1.3015e-15
1.34088e-15
1.38139e-15
1.42306e-15
1.46592e-15
1.50999e-15
1.55533e-15
1.60195e-15
1.6499e-15
1.69921e-15
1.74992e-15
1.80206e-15
1.85569e-15
1.91083e-15
1.96753e-15
2.02583e-15
2.08578e-15
2.14741e-15
2.21078e-15
2.27593e-15
2.34292e-15
2.41178e-15
2.48257e-15
2.55535e-15
2.63016e-15
2.70707e-15
2.78612e-15
2.86738e-15
2.9509e-15
3.03675e-15
3.12499e-15
3.21567e-15
3.30887e-15
3.40466e-15
3.5031e-15
3.60426e-15
3.70822e-15
3.81505e-15
3.92482e-15
4.03761e-15
4.15351e-15
4.27259e-15
4.39494e-15
4.52064e-15
4.64979e-15
4.78246e-15
4.91877e-15
5.05879e-15
5.20263e-15
5.35038e-15
5.50215e-15
5.65804e-15
5.81816e-15
5.98262e-15
6.15152e-15
6.32499e-15
6.50314e-15
6.6861e-15
6.87398e-15
7.06691e-15
7.26502e-15
7.46844e-15
7.67731e-15
7.89177e-15
8.11196e-15
8.33801e-15
8.5701e-15
8.80835e-15
9.05293e-15
9.30401e-15
9.56173e-15
9.82627e-15
1.00978e-14
1.03765e-14
1.06625e-14
1.09561e-14
1.12574e-14
1.15665e-14
1.18838e-14
1.22094e-14
1.25434e-14
1.28862e-14
1.32379e-14
1.35988e-14
1.3969e-14
1.43488e-14
1.47384e-14
1.51381e-14
1.55481e-14
1.59687e-14
1.64001e-14
1.68425e-14
1.72963e-14
1.77617e-14
1.8239e-14
1.87285e-14
1.92304e-14
1.97451e-14
2.02728e-14
2.08139e-14
2.13687e-14
2.19375e-14
2.25207e-14
2.31185e-14
2.37313e-14
2.43594e-14
2.50033e-14
2.56633e-14
2.63397e-14
2.7033e-14
2.77435e-14
2.84716e-14
2.92177e-14
2.99823e-14
3.07657e-14
3.15684e-14
3.23908e-14
3.32333e-14
3.40965e-14
3.49808e-14
3.58866e-14
3.68144e-14
3.77648e-14
3.87382e-14
3.97351e-14
4.0756e-14
4.18016e-14
4.28722e-14
4.39686e-14
4.50911e-14
4.62405e-14
4.74172e-14
4.86219e-14
4.98552e-14
5.11177e-14
5.241e-14
5.37327e-14
5.50865e-14
5.64721e-14
5.78901e-14
5.93412e-14
6.08261e-14
6.23455e-14
6.39001e-14
6.54907e-14
6.71179e-14
6.87826e-14
7.04855e-14
7.22273e-14
7.40089e-14
7.58311e-14
7.76947e-14
7.96005e-14
8.15494e-14
8.35421e-14
8.55796e-14
8.76628e-14
8.97924e-14
9.19695e-14
9.4195e-14
9.64697e-14
9.87946e-14
1.01171e-13
1.03599e-13
1.0608e-13
1.08615e-13
1.11205e-13
1.13851e-13
1.16555e-13
1.19316e-13
1.22136e-13
1.25017e-13
1.27958e-13
1.30962e-13
1.34029e-13
1.3716e-13
1.40356e-13
1.43618e-13
1.46948e-13
1.50346e-13
1.53814e-13
1.57352e-13
1.60962e-13
1.64644e-13
1.68399e-13
1.72229e-13
1.76134e-13
1.80115e-13
1.84174e-13
1.8831e-13
1.92526e-13
1.96821e-13
2.01196e-13
2.05653e-13
2.10191e-13
2.14811e-13
2.19514e-13
2.24299e-13
2.29169e-13
2.34121e-13
2.39157e-13
2.44277e-13
2.4948e-13
2.54766e-13
2.60134e-13
2.65584e-13
2.71114e-13
2.76724e-13
2.82412e-13
2.88177e-13
2.94015e-13
2.99926e-13
3.05906e-13
3.11952e-13
3.1806e-13
3.24227e-13
3.30448e-13
3.36718e-13
3.43031e-13
3.4938e-13
3.55759e-13
3.62159e-13
3.68571e-13
3.74987e-13
3.81393e-13
3.8778e-13
3.94132e-13
4.00436e-13
4.06676e-13
4.12833e-13
4.18888e-13
4.24819e-13
4.30605e-13
4.36218e-13
4.4163e-13
4.46813e-13
4.51732e-13
4.56351e-13
4.60634e-13
4.64538e-13
4.6802e-13
4.71034e-13
4.73534e-13
4.75471e-13
4.76801e-13
4.7748e-13
)
;
    }
}


// ************************************************************************* //
