/*--------------------------------*- C++ -*----------------------------------*\
  =========                 |
  \\      /  F ield         | OpenFOAM: The Open Source CFD Toolbox
   \\    /   O peration     | Website:  https://openfoam.org
    \\  /    A nd           | Version:  dev
     \\/     M anipulation  |
\*---------------------------------------------------------------------------*/
FoamFile
{
    format      ascii;
    class       volScalarField;
    location    "0.8";
    object      N1;
}
// * * * * * * * * * * * * * * * * * * * * * * * * * * * * * * * * * * * * * //

dimensions      [0 0 0 0 0 0 0];

internalField   nonuniform List<scalar> 
8000
(
3.78698e-19
1.20647e-18
2.11745e-18
3.10784e-18
4.17831e-18
5.33263e-18
6.57443e-18
7.90756e-18
9.33633e-18
1.08654e-17
1.24998e-17
1.42447e-17
1.61055e-17
1.80879e-17
2.01976e-17
2.24404e-17
2.48223e-17
2.73494e-17
3.00278e-17
3.2864e-17
3.58642e-17
3.90349e-17
4.23829e-17
4.59148e-17
4.96376e-17
5.35583e-17
5.7684e-17
6.20221e-17
6.658e-17
7.13655e-17
7.63864e-17
8.16506e-17
8.71665e-17
9.29423e-17
9.89866e-17
1.05308e-16
1.11916e-16
1.1882e-16
1.26029e-16
1.33552e-16
1.414e-16
1.49583e-16
1.58111e-16
1.66996e-16
1.76247e-16
1.85876e-16
1.95894e-16
2.06315e-16
2.17148e-16
2.28408e-16
2.40107e-16
2.52257e-16
2.64873e-16
2.77968e-16
2.91556e-16
3.05652e-16
3.20271e-16
3.35429e-16
3.5114e-16
3.67421e-16
3.84289e-16
4.01761e-16
4.19855e-16
4.38588e-16
4.57979e-16
4.78047e-16
4.98812e-16
5.20294e-16
5.42513e-16
5.65492e-16
5.89251e-16
6.13814e-16
6.39203e-16
6.65442e-16
6.92557e-16
7.20571e-16
7.49511e-16
7.79403e-16
8.10275e-16
8.42155e-16
8.75072e-16
9.09055e-16
9.44136e-16
9.80346e-16
1.01772e-15
1.05628e-15
1.09608e-15
1.13713e-15
1.17949e-15
1.22319e-15
1.26826e-15
1.31474e-15
1.36268e-15
1.41212e-15
1.4631e-15
1.51567e-15
1.56986e-15
1.62573e-15
1.68332e-15
1.74269e-15
1.80389e-15
1.86695e-15
1.93195e-15
1.99894e-15
2.06796e-15
2.13909e-15
2.21238e-15
2.28789e-15
2.36568e-15
2.44583e-15
2.52839e-15
2.61344e-15
2.70105e-15
2.79129e-15
2.88423e-15
2.97995e-15
3.07854e-15
3.18007e-15
3.28462e-15
3.39229e-15
3.50316e-15
3.61732e-15
3.73486e-15
3.85589e-15
3.98049e-15
4.10877e-15
4.24084e-15
4.3768e-15
4.51677e-15
4.66085e-15
4.80915e-15
4.96181e-15
5.11895e-15
5.28068e-15
5.44714e-15
5.61846e-15
5.79478e-15
5.97624e-15
6.16298e-15
6.35515e-15
6.5529e-15
6.7564e-15
6.96579e-15
7.18125e-15
7.40295e-15
7.63105e-15
7.86574e-15
8.10721e-15
8.35563e-15
8.6112e-15
8.87413e-15
9.14461e-15
9.42286e-15
9.70909e-15
1.00035e-14
1.03064e-14
1.06179e-14
1.09383e-14
1.12679e-14
1.16069e-14
1.19555e-14
1.2314e-14
1.26828e-14
1.3062e-14
1.34519e-14
1.3853e-14
1.42654e-14
1.46894e-14
1.51255e-14
1.55738e-14
1.60348e-14
1.65088e-14
1.69962e-14
1.74972e-14
1.80124e-14
1.8542e-14
1.90864e-14
1.96461e-14
2.02215e-14
2.08129e-14
2.14209e-14
2.20458e-14
2.26882e-14
2.33484e-14
2.4027e-14
2.47244e-14
2.54412e-14
2.61779e-14
2.6935e-14
2.7713e-14
2.85125e-14
2.93341e-14
3.01783e-14
3.10458e-14
3.19371e-14
3.28529e-14
3.37939e-14
3.47607e-14
3.57539e-14
3.67743e-14
3.78226e-14
3.88995e-14
4.00057e-14
4.1142e-14
4.23093e-14
4.35082e-14
4.47397e-14
4.60045e-14
4.73035e-14
4.86377e-14
5.00078e-14
5.14149e-14
5.28599e-14
5.43437e-14
5.58673e-14
5.74318e-14
5.90383e-14
6.06876e-14
6.23811e-14
6.41197e-14
6.59046e-14
6.7737e-14
6.96181e-14
7.1549e-14
7.35312e-14
7.55658e-14
7.76541e-14
7.97975e-14
8.19974e-14
8.42552e-14
8.65722e-14
8.89501e-14
9.13902e-14
9.38941e-14
9.64634e-14
9.90997e-14
1.01805e-13
1.0458e-13
1.07427e-13
1.10348e-13
1.13345e-13
1.16419e-13
1.19572e-13
1.22807e-13
1.26125e-13
1.29528e-13
1.33018e-13
1.36597e-13
1.40268e-13
1.44032e-13
1.47893e-13
1.51851e-13
1.5591e-13
1.60072e-13
1.64339e-13
1.68713e-13
1.73198e-13
1.77796e-13
1.82509e-13
1.8734e-13
1.92293e-13
1.97368e-13
2.02571e-13
2.07903e-13
2.13367e-13
2.18967e-13
2.24706e-13
2.30586e-13
2.36611e-13
2.42784e-13
2.4911e-13
2.5559e-13
2.62228e-13
2.69029e-13
2.75996e-13
2.83132e-13
2.90441e-13
2.97927e-13
3.05595e-13
3.13447e-13
3.21488e-13
3.29723e-13
3.38155e-13
3.46788e-13
3.55628e-13
3.64679e-13
3.73944e-13
3.83429e-13
3.93139e-13
4.03078e-13
4.13251e-13
4.23664e-13
4.3432e-13
4.45226e-13
4.56386e-13
4.67807e-13
4.79492e-13
4.91449e-13
5.03682e-13
5.16197e-13
5.29e-13
5.42097e-13
5.55494e-13
5.69196e-13
5.83211e-13
5.97544e-13
6.12201e-13
6.2719e-13
6.42516e-13
6.58187e-13
6.74208e-13
6.90588e-13
7.07332e-13
7.24448e-13
7.41943e-13
7.59823e-13
7.78097e-13
7.96772e-13
8.15855e-13
8.35353e-13
8.55274e-13
8.75627e-13
8.96417e-13
9.17654e-13
9.39345e-13
9.61498e-13
9.84121e-13
1.00722e-12
1.03081e-12
1.05489e-12
1.07947e-12
1.10456e-12
1.13017e-12
1.15631e-12
1.18298e-12
1.21019e-12
1.23795e-12
1.26627e-12
1.29515e-12
1.32461e-12
1.35464e-12
1.38526e-12
1.41648e-12
1.44829e-12
1.48071e-12
1.51374e-12
1.5474e-12
1.58167e-12
1.61657e-12
1.65211e-12
1.68828e-12
1.72508e-12
1.76253e-12
1.80062e-12
1.83936e-12
1.87873e-12
1.91875e-12
1.9594e-12
2.00069e-12
2.0426e-12
2.08514e-12
2.12828e-12
2.17203e-12
2.21636e-12
2.26127e-12
2.30673e-12
2.35272e-12
2.39922e-12
2.4462e-12
2.49363e-12
2.54147e-12
2.5897e-12
2.63825e-12
2.68708e-12
2.73614e-12
2.78536e-12
2.83468e-12
2.88402e-12
2.93329e-12
2.98241e-12
3.03127e-12
3.07975e-12
3.12774e-12
3.17509e-12
3.22166e-12
3.26728e-12
3.31177e-12
3.35494e-12
3.39657e-12
3.43643e-12
3.47426e-12
3.50979e-12
3.54272e-12
3.57275e-12
3.59953e-12
3.62271e-12
3.64193e-12
3.65682e-12
3.66704e-12
3.67227e-12
3.70977e-19
1.18927e-18
2.09257e-18
3.07957e-18
4.15021e-18
5.307e-18
6.55313e-18
7.89232e-18
9.32879e-18
1.08672e-17
1.25127e-17
1.42705e-17
1.61462e-17
1.81455e-17
2.02742e-17
2.25383e-17
2.49441e-17
2.74976e-17
3.02053e-17
3.30737e-17
3.61092e-17
3.93187e-17
4.27088e-17
4.62867e-17
5.00593e-17
5.40339e-17
5.82179e-17
6.26189e-17
6.72446e-17
7.21029e-17
7.7202e-17
8.255e-17
8.81554e-17
9.40269e-17
1.00173e-16
1.06604e-16
1.13328e-16
1.20355e-16
1.27695e-16
1.35357e-16
1.43352e-16
1.51691e-16
1.60384e-16
1.69442e-16
1.78877e-16
1.887e-16
1.98923e-16
2.09558e-16
2.20618e-16
2.32116e-16
2.44065e-16
2.56478e-16
2.6937e-16
2.82754e-16
2.96645e-16
3.11059e-16
3.2601e-16
3.41515e-16
3.57589e-16
3.7425e-16
3.91515e-16
4.09401e-16
4.27926e-16
4.4711e-16
4.66971e-16
4.87529e-16
5.08804e-16
5.30817e-16
5.53589e-16
5.77142e-16
6.015e-16
6.26684e-16
6.52719e-16
6.7963e-16
7.07441e-16
7.36179e-16
7.6587e-16
7.96542e-16
8.28223e-16
8.60942e-16
8.94728e-16
9.29613e-16
9.65628e-16
1.00281e-15
1.04118e-15
1.08078e-15
1.12165e-15
1.16382e-15
1.20733e-15
1.25221e-15
1.29852e-15
1.34628e-15
1.39554e-15
1.44634e-15
1.49873e-15
1.55275e-15
1.60845e-15
1.66587e-15
1.72507e-15
1.7861e-15
1.84901e-15
1.91384e-15
1.98067e-15
2.04954e-15
2.12052e-15
2.19365e-15
2.26902e-15
2.34667e-15
2.42667e-15
2.5091e-15
2.59401e-15
2.68149e-15
2.7716e-15
2.86441e-15
2.96002e-15
3.05849e-15
3.1599e-15
3.26435e-15
3.37191e-15
3.48268e-15
3.59675e-15
3.7142e-15
3.83514e-15
3.95966e-15
4.08787e-15
4.21987e-15
4.35577e-15
4.49567e-15
4.6397e-15
4.78796e-15
4.94058e-15
5.09768e-15
5.25939e-15
5.42583e-15
5.59714e-15
5.77346e-15
5.95493e-15
6.14168e-15
6.33388e-15
6.53167e-15
6.73521e-15
6.94466e-15
7.16019e-15
7.38196e-15
7.61015e-15
7.84494e-15
8.08652e-15
8.33506e-15
8.59078e-15
8.85386e-15
9.12451e-15
9.40294e-15
9.68937e-15
9.98401e-15
1.02871e-14
1.05989e-14
1.09196e-14
1.12494e-14
1.15887e-14
1.19377e-14
1.22966e-14
1.26657e-14
1.30453e-14
1.34357e-14
1.38372e-14
1.425e-14
1.46746e-14
1.51112e-14
1.55601e-14
1.60217e-14
1.64964e-14
1.69844e-14
1.74861e-14
1.8002e-14
1.85324e-14
1.90776e-14
1.96382e-14
2.02145e-14
2.08069e-14
2.14158e-14
2.20418e-14
2.26852e-14
2.33466e-14
2.40264e-14
2.47251e-14
2.54432e-14
2.61813e-14
2.69398e-14
2.77193e-14
2.85204e-14
2.93436e-14
3.01896e-14
3.10589e-14
3.19521e-14
3.28699e-14
3.38129e-14
3.47818e-14
3.57773e-14
3.68e-14
3.78508e-14
3.89302e-14
4.00391e-14
4.11782e-14
4.23483e-14
4.35503e-14
4.47849e-14
4.60529e-14
4.73554e-14
4.86931e-14
5.00669e-14
5.14778e-14
5.29268e-14
5.44148e-14
5.59427e-14
5.75118e-14
5.91229e-14
6.07771e-14
6.24756e-14
6.42195e-14
6.60099e-14
6.7848e-14
6.9735e-14
7.16722e-14
7.36607e-14
7.57019e-14
7.77972e-14
7.99478e-14
8.21551e-14
8.44207e-14
8.67458e-14
8.9132e-14
9.15808e-14
9.40937e-14
9.66724e-14
9.93184e-14
1.02033e-13
1.04819e-13
1.07677e-13
1.1061e-13
1.13618e-13
1.16704e-13
1.1987e-13
1.23118e-13
1.26449e-13
1.29866e-13
1.33371e-13
1.36965e-13
1.40651e-13
1.44432e-13
1.48309e-13
1.52285e-13
1.56362e-13
1.60542e-13
1.64828e-13
1.69223e-13
1.73729e-13
1.78348e-13
1.83083e-13
1.87937e-13
1.92913e-13
1.98014e-13
2.03242e-13
2.086e-13
2.14092e-13
2.1972e-13
2.25488e-13
2.31399e-13
2.37455e-13
2.43661e-13
2.5002e-13
2.56535e-13
2.63209e-13
2.70047e-13
2.77052e-13
2.84228e-13
2.91578e-13
2.99107e-13
3.06818e-13
3.14715e-13
3.22803e-13
3.31086e-13
3.39568e-13
3.48254e-13
3.57147e-13
3.66252e-13
3.75575e-13
3.85119e-13
3.94889e-13
4.04891e-13
4.15129e-13
4.25609e-13
4.36334e-13
4.47311e-13
4.58546e-13
4.70042e-13
4.81806e-13
4.93844e-13
5.06161e-13
5.18762e-13
5.31654e-13
5.44843e-13
5.58335e-13
5.72136e-13
5.86251e-13
6.00689e-13
6.15454e-13
6.30553e-13
6.45994e-13
6.61783e-13
6.77927e-13
6.94432e-13
7.11306e-13
7.28556e-13
7.46189e-13
7.64212e-13
7.82633e-13
8.0146e-13
8.20699e-13
8.40359e-13
8.60447e-13
8.80971e-13
9.01939e-13
9.23358e-13
9.45238e-13
9.67586e-13
9.9041e-13
1.01372e-12
1.03752e-12
1.06182e-12
1.08663e-12
1.11196e-12
1.13781e-12
1.1642e-12
1.19113e-12
1.21861e-12
1.24665e-12
1.27525e-12
1.30443e-12
1.33419e-12
1.36454e-12
1.39549e-12
1.42704e-12
1.45921e-12
1.49199e-12
1.5254e-12
1.55944e-12
1.59412e-12
1.62944e-12
1.66541e-12
1.70203e-12
1.7393e-12
1.77724e-12
1.81583e-12
1.85509e-12
1.89501e-12
1.9356e-12
1.97685e-12
2.01875e-12
2.06131e-12
2.10451e-12
2.14836e-12
2.19284e-12
2.23794e-12
2.28365e-12
2.32995e-12
2.37682e-12
2.42424e-12
2.47219e-12
2.52064e-12
2.56956e-12
2.61891e-12
2.66864e-12
2.71873e-12
2.76911e-12
2.81973e-12
2.87052e-12
2.92142e-12
2.97234e-12
3.02321e-12
3.07392e-12
3.12438e-12
3.17446e-12
3.22403e-12
3.27297e-12
3.32111e-12
3.36829e-12
3.41431e-12
3.45899e-12
3.5021e-12
3.54339e-12
3.58262e-12
3.61949e-12
3.65371e-12
3.68494e-12
3.71283e-12
3.73703e-12
3.75714e-12
3.77277e-12
3.78355e-12
3.78909e-12
3.64032e-19
1.16789e-18
2.05443e-18
3.02626e-18
4.08482e-18
5.23219e-18
6.47117e-18
7.8052e-18
9.23833e-18
1.07751e-17
1.24206e-17
1.418e-17
1.60589e-17
1.80631e-17
2.01986e-17
2.24713e-17
2.48876e-17
2.74538e-17
3.01762e-17
3.30616e-17
3.61166e-17
3.9348e-17
4.27628e-17
4.63682e-17
5.01714e-17
5.41798e-17
5.8401e-17
6.28427e-17
6.75129e-17
7.24198e-17
7.75715e-17
8.29766e-17
8.86437e-17
9.45819e-17
1.008e-16
1.07308e-16
1.14114e-16
1.2123e-16
1.28664e-16
1.36427e-16
1.4453e-16
1.52984e-16
1.61799e-16
1.70986e-16
1.80559e-16
1.90527e-16
2.00904e-16
2.11703e-16
2.22935e-16
2.34614e-16
2.46755e-16
2.5937e-16
2.72474e-16
2.86081e-16
3.00207e-16
3.14867e-16
3.30077e-16
3.45853e-16
3.62212e-16
3.79171e-16
3.96747e-16
4.1496e-16
4.33826e-16
4.53366e-16
4.73599e-16
4.94545e-16
5.16225e-16
5.38661e-16
5.61873e-16
5.85885e-16
6.10721e-16
6.36402e-16
6.62955e-16
6.90404e-16
7.18776e-16
7.48095e-16
7.78391e-16
8.09691e-16
8.42024e-16
8.7542e-16
9.09909e-16
9.45523e-16
9.82294e-16
1.02025e-15
1.05944e-15
1.09988e-15
1.14163e-15
1.1847e-15
1.22914e-15
1.275e-15
1.3223e-15
1.3711e-15
1.42144e-15
1.47335e-15
1.52689e-15
1.5821e-15
1.63902e-15
1.69772e-15
1.75823e-15
1.82061e-15
1.88492e-15
1.95121e-15
2.01953e-15
2.08995e-15
2.16252e-15
2.2373e-15
2.31437e-15
2.39377e-15
2.47559e-15
2.55989e-15
2.64673e-15
2.7362e-15
2.82837e-15
2.9233e-15
3.0211e-15
3.12182e-15
3.22556e-15
3.33241e-15
3.44245e-15
3.55577e-15
3.67246e-15
3.79262e-15
3.91636e-15
4.04376e-15
4.17494e-15
4.31e-15
4.44905e-15
4.59221e-15
4.73958e-15
4.8913e-15
5.04747e-15
5.20824e-15
5.37372e-15
5.54405e-15
5.71936e-15
5.89981e-15
6.08552e-15
6.27665e-15
6.47335e-15
6.67578e-15
6.8841e-15
7.09846e-15
7.31905e-15
7.54604e-15
7.7796e-15
8.01992e-15
8.26718e-15
8.52159e-15
8.78333e-15
9.05261e-15
9.32965e-15
9.61466e-15
9.90785e-15
1.02095e-14
1.05197e-14
1.08389e-14
1.11672e-14
1.15048e-14
1.18521e-14
1.22094e-14
1.25768e-14
1.29546e-14
1.33432e-14
1.37429e-14
1.41539e-14
1.45766e-14
1.50113e-14
1.54582e-14
1.59178e-14
1.63904e-14
1.68763e-14
1.73759e-14
1.78897e-14
1.84178e-14
1.89608e-14
1.95191e-14
2.0093e-14
2.0683e-14
2.12895e-14
2.1913e-14
2.25539e-14
2.32127e-14
2.38899e-14
2.45859e-14
2.53013e-14
2.60366e-14
2.67923e-14
2.75689e-14
2.83671e-14
2.91873e-14
3.00303e-14
3.08965e-14
3.17865e-14
3.27012e-14
3.36409e-14
3.46066e-14
3.55987e-14
3.6618e-14
3.76653e-14
3.87412e-14
3.98465e-14
4.0982e-14
4.21485e-14
4.33467e-14
4.45775e-14
4.58417e-14
4.71403e-14
4.8474e-14
4.98438e-14
5.12507e-14
5.26956e-14
5.41794e-14
5.57031e-14
5.72679e-14
5.88747e-14
6.05246e-14
6.22186e-14
6.39581e-14
6.5744e-14
6.75775e-14
6.94599e-14
7.13924e-14
7.33763e-14
7.54128e-14
7.75033e-14
7.96491e-14
8.18516e-14
8.41123e-14
8.64325e-14
8.88138e-14
9.12576e-14
9.37656e-14
9.63393e-14
9.89804e-14
1.0169e-13
1.04471e-13
1.07324e-13
1.10252e-13
1.13255e-13
1.16336e-13
1.19497e-13
1.2274e-13
1.26066e-13
1.29478e-13
1.32978e-13
1.36567e-13
1.40249e-13
1.44025e-13
1.47897e-13
1.51869e-13
1.55941e-13
1.60117e-13
1.64399e-13
1.68789e-13
1.73291e-13
1.77906e-13
1.82637e-13
1.87488e-13
1.9246e-13
1.97558e-13
2.02782e-13
2.08138e-13
2.13626e-13
2.19252e-13
2.25017e-13
2.30926e-13
2.3698e-13
2.43185e-13
2.49542e-13
2.56056e-13
2.6273e-13
2.69568e-13
2.76573e-13
2.83749e-13
2.911e-13
2.9863e-13
3.06343e-13
3.14242e-13
3.22333e-13
3.30619e-13
3.39105e-13
3.47795e-13
3.56693e-13
3.65804e-13
3.75133e-13
3.84684e-13
3.94462e-13
4.04472e-13
4.1472e-13
4.25209e-13
4.35946e-13
4.46935e-13
4.58182e-13
4.69692e-13
4.81471e-13
4.93525e-13
5.05859e-13
5.18479e-13
5.31391e-13
5.446e-13
5.58114e-13
5.71939e-13
5.86079e-13
6.00543e-13
6.15337e-13
6.30467e-13
6.45939e-13
6.61761e-13
6.7794e-13
6.94483e-13
7.11396e-13
7.28688e-13
7.46364e-13
7.64434e-13
7.82904e-13
8.01781e-13
8.21074e-13
8.4079e-13
8.60938e-13
8.81524e-13
9.02558e-13
9.24047e-13
9.45999e-13
9.68422e-13
9.91326e-13
1.01472e-12
1.03861e-12
1.063e-12
1.08791e-12
1.11334e-12
1.1393e-12
1.1658e-12
1.19284e-12
1.22044e-12
1.24861e-12
1.27735e-12
1.30667e-12
1.33658e-12
1.36709e-12
1.3982e-12
1.42993e-12
1.46227e-12
1.49525e-12
1.52886e-12
1.56311e-12
1.59801e-12
1.63356e-12
1.66977e-12
1.70665e-12
1.7442e-12
1.78242e-12
1.82132e-12
1.8609e-12
1.90116e-12
1.9421e-12
1.98372e-12
2.02602e-12
2.069e-12
2.11266e-12
2.15698e-12
2.20196e-12
2.24759e-12
2.29386e-12
2.34075e-12
2.38826e-12
2.43636e-12
2.48503e-12
2.53424e-12
2.58397e-12
2.63419e-12
2.68486e-12
2.73593e-12
2.78737e-12
2.83912e-12
2.89112e-12
2.94331e-12
2.99562e-12
3.04797e-12
3.10027e-12
3.15243e-12
3.20433e-12
3.25587e-12
3.30691e-12
3.35732e-12
3.40693e-12
3.45557e-12
3.50305e-12
3.54918e-12
3.59372e-12
3.63644e-12
3.67706e-12
3.71529e-12
3.75083e-12
3.78333e-12
3.81242e-12
3.83773e-12
3.85885e-12
3.87534e-12
3.88677e-12
3.8927e-12
3.57124e-19
1.14548e-18
2.01359e-18
2.96595e-18
4.00581e-18
5.13596e-18
6.35944e-18
7.67974e-18
9.10089e-18
1.06274e-17
1.22641e-17
1.40164e-17
1.58897e-17
1.78899e-17
2.00228e-17
2.22945e-17
2.47113e-17
2.72797e-17
3.0006e-17
3.2897e-17
3.59595e-17
3.92003e-17
4.26267e-17
4.62457e-17
5.00648e-17
5.40915e-17
5.83337e-17
6.27991e-17
6.74959e-17
7.24323e-17
7.76168e-17
8.30581e-17
8.87651e-17
9.47469e-17
1.01013e-16
1.07572e-16
1.14435e-16
1.21611e-16
1.29111e-16
1.36945e-16
1.45124e-16
1.53659e-16
1.62561e-16
1.71842e-16
1.81514e-16
1.91589e-16
2.02079e-16
2.12997e-16
2.24357e-16
2.36172e-16
2.48455e-16
2.61221e-16
2.74485e-16
2.88261e-16
3.02565e-16
3.17413e-16
3.3282e-16
3.48803e-16
3.6538e-16
3.82568e-16
4.00385e-16
4.18849e-16
4.37979e-16
4.57795e-16
4.78317e-16
4.99566e-16
5.21562e-16
5.44328e-16
5.67885e-16
5.92258e-16
6.17468e-16
6.43541e-16
6.70502e-16
6.98375e-16
7.27189e-16
7.56969e-16
7.87743e-16
8.19541e-16
8.52391e-16
8.86325e-16
9.21372e-16
9.57566e-16
9.94939e-16
1.03352e-15
1.07336e-15
1.11448e-15
1.15691e-15
1.20071e-15
1.2459e-15
1.29253e-15
1.34064e-15
1.39027e-15
1.44147e-15
1.49427e-15
1.54873e-15
1.6049e-15
1.66281e-15
1.72253e-15
1.7841e-15
1.84758e-15
1.91301e-15
1.98047e-15
2.05e-15
2.12166e-15
2.19552e-15
2.27163e-15
2.35007e-15
2.4309e-15
2.51418e-15
2.59999e-15
2.68839e-15
2.77947e-15
2.8733e-15
2.96996e-15
3.06952e-15
3.17207e-15
3.2777e-15
3.38649e-15
3.49853e-15
3.61392e-15
3.73275e-15
3.85511e-15
3.98112e-15
4.11086e-15
4.24445e-15
4.38199e-15
4.52361e-15
4.6694e-15
4.8195e-15
4.97402e-15
5.13308e-15
5.29682e-15
5.46537e-15
5.63886e-15
5.81743e-15
6.00123e-15
6.19039e-15
6.38508e-15
6.58545e-15
6.79166e-15
7.00386e-15
7.22223e-15
7.44695e-15
7.67818e-15
7.91611e-15
8.16093e-15
8.41283e-15
8.67201e-15
8.93866e-15
9.21301e-15
9.49525e-15
9.78562e-15
1.00843e-14
1.03916e-14
1.07077e-14
1.10329e-14
1.13674e-14
1.17114e-14
1.20653e-14
1.24292e-14
1.28036e-14
1.31886e-14
1.35846e-14
1.39918e-14
1.44106e-14
1.48413e-14
1.52841e-14
1.57396e-14
1.62079e-14
1.66894e-14
1.71846e-14
1.76937e-14
1.82172e-14
1.87554e-14
1.93087e-14
1.98776e-14
2.04624e-14
2.10636e-14
2.16817e-14
2.23171e-14
2.29702e-14
2.36416e-14
2.43317e-14
2.5041e-14
2.577e-14
2.65193e-14
2.72895e-14
2.80809e-14
2.88944e-14
2.97303e-14
3.05893e-14
3.14721e-14
3.23792e-14
3.33114e-14
3.42692e-14
3.52533e-14
3.62644e-14
3.73033e-14
3.83707e-14
3.94672e-14
4.05938e-14
4.17511e-14
4.29399e-14
4.41612e-14
4.54156e-14
4.67042e-14
4.80277e-14
4.93871e-14
5.07833e-14
5.22173e-14
5.369e-14
5.52024e-14
5.67555e-14
5.83504e-14
5.99882e-14
6.16699e-14
6.33967e-14
6.51698e-14
6.69901e-14
6.88591e-14
7.07779e-14
7.27478e-14
7.47701e-14
7.6846e-14
7.89769e-14
8.11643e-14
8.34095e-14
8.5714e-14
8.80792e-14
9.05066e-14
9.29979e-14
9.55546e-14
9.81782e-14
1.00871e-13
1.03633e-13
1.06468e-13
1.09377e-13
1.12361e-13
1.15423e-13
1.18564e-13
1.21786e-13
1.25092e-13
1.28483e-13
1.31962e-13
1.3553e-13
1.39189e-13
1.42943e-13
1.46793e-13
1.50741e-13
1.54789e-13
1.58941e-13
1.63199e-13
1.67565e-13
1.72041e-13
1.76631e-13
1.81336e-13
1.8616e-13
1.91106e-13
1.96176e-13
2.01373e-13
2.067e-13
2.12161e-13
2.17758e-13
2.23494e-13
2.29372e-13
2.35397e-13
2.41571e-13
2.47897e-13
2.5438e-13
2.61022e-13
2.67827e-13
2.748e-13
2.81943e-13
2.8926e-13
2.96757e-13
3.04435e-13
3.123e-13
3.20356e-13
3.28607e-13
3.37057e-13
3.45711e-13
3.54573e-13
3.63647e-13
3.72939e-13
3.82452e-13
3.92193e-13
4.02165e-13
4.12374e-13
4.22825e-13
4.33523e-13
4.44473e-13
4.55681e-13
4.67151e-13
4.78891e-13
4.90905e-13
5.03198e-13
5.15778e-13
5.2865e-13
5.41819e-13
5.55293e-13
5.69077e-13
5.83177e-13
5.97601e-13
6.12354e-13
6.27443e-13
6.42876e-13
6.58659e-13
6.74798e-13
6.91302e-13
7.08176e-13
7.25429e-13
7.43068e-13
7.611e-13
7.79533e-13
7.98374e-13
8.17632e-13
8.37313e-13
8.57427e-13
8.77981e-13
8.98983e-13
9.20442e-13
9.42365e-13
9.64761e-13
9.87639e-13
1.01101e-12
1.03487e-12
1.05925e-12
1.08413e-12
1.10955e-12
1.13549e-12
1.16198e-12
1.18902e-12
1.21662e-12
1.24478e-12
1.27353e-12
1.30285e-12
1.33277e-12
1.3633e-12
1.39443e-12
1.42618e-12
1.45856e-12
1.49157e-12
1.52522e-12
1.55953e-12
1.59448e-12
1.63011e-12
1.6664e-12
1.70336e-12
1.74101e-12
1.77934e-12
1.81836e-12
1.85807e-12
1.89847e-12
1.93958e-12
1.98138e-12
2.02388e-12
2.06708e-12
2.11097e-12
2.15555e-12
2.20081e-12
2.24676e-12
2.29337e-12
2.34064e-12
2.38855e-12
2.43709e-12
2.48624e-12
2.53597e-12
2.58627e-12
2.63711e-12
2.68845e-12
2.74025e-12
2.79248e-12
2.84509e-12
2.89803e-12
2.95124e-12
3.00465e-12
3.0582e-12
3.1118e-12
3.16537e-12
3.21881e-12
3.27202e-12
3.32486e-12
3.37723e-12
3.42896e-12
3.47991e-12
3.52989e-12
3.57873e-12
3.62621e-12
3.67211e-12
3.71617e-12
3.75813e-12
3.79768e-12
3.83452e-12
3.86828e-12
3.89859e-12
3.92504e-12
3.94719e-12
3.96458e-12
3.97671e-12
3.98304e-12
3.506e-19
1.12422e-18
1.9749e-18
2.90759e-18
3.92676e-18
5.03623e-18
6.23972e-18
7.54117e-18
8.9448e-18
1.04552e-17
1.20774e-17
1.38166e-17
1.56783e-17
1.76681e-17
1.97921e-17
2.20563e-17
2.44669e-17
2.70303e-17
2.9753e-17
3.26418e-17
3.57034e-17
3.89449e-17
4.23734e-17
4.59962e-17
4.98208e-17
5.38548e-17
5.81062e-17
6.25828e-17
6.7293e-17
7.22451e-17
7.74477e-17
8.29098e-17
8.86402e-17
9.46483e-17
1.00944e-16
1.07536e-16
1.14434e-16
1.2165e-16
1.29193e-16
1.37074e-16
1.45305e-16
1.53895e-16
1.62857e-16
1.72203e-16
1.81945e-16
1.92094e-16
2.02665e-16
2.13669e-16
2.2512e-16
2.37033e-16
2.4942e-16
2.62297e-16
2.75678e-16
2.89578e-16
3.04014e-16
3.19e-16
3.34554e-16
3.50693e-16
3.67433e-16
3.84793e-16
4.02791e-16
4.21446e-16
4.40776e-16
4.60802e-16
4.81545e-16
5.03024e-16
5.25262e-16
5.48281e-16
5.72103e-16
5.96752e-16
6.22251e-16
6.48626e-16
6.75902e-16
7.04104e-16
7.3326e-16
7.63397e-16
7.94543e-16
8.26728e-16
8.59982e-16
8.94334e-16
9.29818e-16
9.66464e-16
1.00431e-15
1.04338e-15
1.08372e-15
1.12537e-15
1.16835e-15
1.21272e-15
1.2585e-15
1.30574e-15
1.35448e-15
1.40477e-15
1.45664e-15
1.51015e-15
1.56534e-15
1.62226e-15
1.68095e-15
1.74148e-15
1.80388e-15
1.86822e-15
1.93456e-15
2.00293e-15
2.07342e-15
2.14607e-15
2.22095e-15
2.29812e-15
2.37765e-15
2.4596e-15
2.54405e-15
2.63106e-15
2.72071e-15
2.81307e-15
2.90822e-15
3.00624e-15
3.10721e-15
3.21122e-15
3.31835e-15
3.42869e-15
3.54233e-15
3.65936e-15
3.77989e-15
3.90401e-15
4.03182e-15
4.16343e-15
4.29894e-15
4.43847e-15
4.58212e-15
4.73003e-15
4.88229e-15
5.03905e-15
5.20042e-15
5.36654e-15
5.53754e-15
5.71356e-15
5.89473e-15
6.08121e-15
6.27314e-15
6.47068e-15
6.67398e-15
6.8832e-15
7.09851e-15
7.32009e-15
7.54811e-15
7.78274e-15
8.02417e-15
8.27259e-15
8.5282e-15
8.7912e-15
9.06179e-15
9.34018e-15
9.6266e-15
9.92126e-15
1.02244e-14
1.05362e-14
1.0857e-14
1.1187e-14
1.15264e-14
1.18756e-14
1.22347e-14
1.26041e-14
1.2984e-14
1.33747e-14
1.37766e-14
1.41899e-14
1.46149e-14
1.5052e-14
1.55015e-14
1.59638e-14
1.64391e-14
1.69278e-14
1.74304e-14
1.79471e-14
1.84784e-14
1.90247e-14
1.95863e-14
2.01637e-14
2.07573e-14
2.13676e-14
2.19949e-14
2.26399e-14
2.33028e-14
2.39843e-14
2.46847e-14
2.54047e-14
2.61447e-14
2.69053e-14
2.76871e-14
2.84905e-14
2.93162e-14
3.01648e-14
3.10368e-14
3.19329e-14
3.28537e-14
3.38e-14
3.47722e-14
3.57713e-14
3.67977e-14
3.78523e-14
3.89359e-14
4.00491e-14
4.11927e-14
4.23676e-14
4.35745e-14
4.48143e-14
4.60878e-14
4.7396e-14
4.87396e-14
5.01197e-14
5.15372e-14
5.2993e-14
5.44881e-14
5.60236e-14
5.76004e-14
5.92197e-14
6.08825e-14
6.25899e-14
6.43431e-14
6.61432e-14
6.79914e-14
6.9889e-14
7.18372e-14
7.38372e-14
7.58905e-14
7.79982e-14
8.01619e-14
8.23828e-14
8.46625e-14
8.70023e-14
8.94039e-14
9.18687e-14
9.43983e-14
9.69943e-14
9.96583e-14
1.02392e-13
1.05197e-13
1.08076e-13
1.11029e-13
1.1406e-13
1.17169e-13
1.20358e-13
1.23631e-13
1.26988e-13
1.30431e-13
1.33964e-13
1.37587e-13
1.41303e-13
1.45115e-13
1.49024e-13
1.53034e-13
1.57145e-13
1.61362e-13
1.65685e-13
1.70119e-13
1.74665e-13
1.79326e-13
1.84105e-13
1.89004e-13
1.94027e-13
1.99176e-13
2.04454e-13
2.09865e-13
2.15411e-13
2.21095e-13
2.26921e-13
2.32891e-13
2.3901e-13
2.45281e-13
2.51706e-13
2.5829e-13
2.65037e-13
2.71949e-13
2.79031e-13
2.86286e-13
2.93719e-13
3.01333e-13
3.09133e-13
3.17122e-13
3.25305e-13
3.33686e-13
3.42269e-13
3.5106e-13
3.60061e-13
3.69279e-13
3.78718e-13
3.88382e-13
3.98277e-13
4.08407e-13
4.18778e-13
4.29395e-13
4.40262e-13
4.51386e-13
4.62772e-13
4.74425e-13
4.86352e-13
4.98557e-13
5.11046e-13
5.23827e-13
5.36903e-13
5.50283e-13
5.63972e-13
5.77976e-13
5.92302e-13
6.06957e-13
6.21946e-13
6.37278e-13
6.52958e-13
6.68994e-13
6.85392e-13
7.02161e-13
7.19307e-13
7.36838e-13
7.54761e-13
7.73083e-13
7.91814e-13
8.10959e-13
8.30528e-13
8.50528e-13
8.70967e-13
8.91854e-13
9.13196e-13
9.35003e-13
9.57282e-13
9.80042e-13
1.00329e-12
1.02704e-12
1.0513e-12
1.07607e-12
1.10136e-12
1.12719e-12
1.15356e-12
1.18048e-12
1.20796e-12
1.23602e-12
1.26464e-12
1.29386e-12
1.32367e-12
1.35408e-12
1.38511e-12
1.41676e-12
1.44904e-12
1.48195e-12
1.51551e-12
1.54972e-12
1.5846e-12
1.62014e-12
1.65636e-12
1.69326e-12
1.73084e-12
1.76912e-12
1.8081e-12
1.84778e-12
1.88817e-12
1.92926e-12
1.97107e-12
2.01358e-12
2.05681e-12
2.10075e-12
2.1454e-12
2.19076e-12
2.23681e-12
2.28356e-12
2.33099e-12
2.37909e-12
2.42785e-12
2.47726e-12
2.52729e-12
2.57792e-12
2.62914e-12
2.6809e-12
2.73319e-12
2.78596e-12
2.83917e-12
2.89278e-12
2.94673e-12
3.00097e-12
3.05543e-12
3.11004e-12
3.16472e-12
3.21939e-12
3.27394e-12
3.32827e-12
3.38227e-12
3.43579e-12
3.4887e-12
3.54083e-12
3.59202e-12
3.64207e-12
3.69077e-12
3.73789e-12
3.78319e-12
3.82638e-12
3.86717e-12
3.90522e-12
3.94017e-12
3.97164e-12
3.99918e-12
4.02234e-12
4.0406e-12
4.05341e-12
4.06015e-12
3.44826e-19
1.10534e-18
1.94053e-18
2.8553e-18
3.85469e-18
4.94339e-18
6.12591e-18
7.40679e-18
8.79068e-18
1.02825e-17
1.18872e-17
1.36102e-17
1.5457e-17
1.74333e-17
1.95448e-17
2.17977e-17
2.41981e-17
2.67525e-17
2.94672e-17
3.2349e-17
3.54047e-17
3.86414e-17
4.20662e-17
4.56864e-17
4.95097e-17
5.35438e-17
5.77966e-17
6.22761e-17
6.69908e-17
7.19491e-17
7.71597e-17
8.26316e-17
8.83739e-17
9.4396e-17
1.00707e-16
1.07318e-16
1.14238e-16
1.21478e-16
1.29048e-16
1.36959e-16
1.45222e-16
1.53848e-16
1.6285e-16
1.72239e-16
1.82028e-16
1.92228e-16
2.02853e-16
2.13917e-16
2.25432e-16
2.37412e-16
2.49873e-16
2.62828e-16
2.76293e-16
2.90282e-16
3.04812e-16
3.19899e-16
3.3556e-16
3.51811e-16
3.68671e-16
3.86157e-16
4.04288e-16
4.23083e-16
4.42561e-16
4.62743e-16
4.83649e-16
5.05301e-16
5.27719e-16
5.50927e-16
5.74948e-16
5.99804e-16
6.25521e-16
6.52124e-16
6.79637e-16
7.08088e-16
7.37503e-16
7.67911e-16
7.99339e-16
8.31818e-16
8.65378e-16
9.0005e-16
9.35866e-16
9.72859e-16
1.01106e-15
1.05051e-15
1.09124e-15
1.13329e-15
1.17669e-15
1.22149e-15
1.26773e-15
1.31544e-15
1.36467e-15
1.41546e-15
1.46785e-15
1.52191e-15
1.57766e-15
1.63515e-15
1.69445e-15
1.7556e-15
1.81865e-15
1.88366e-15
1.95069e-15
2.01978e-15
2.09101e-15
2.16442e-15
2.24009e-15
2.31808e-15
2.39846e-15
2.48128e-15
2.56663e-15
2.65458e-15
2.74519e-15
2.83854e-15
2.93472e-15
3.03381e-15
3.13588e-15
3.24101e-15
3.34931e-15
3.46086e-15
3.57574e-15
3.69406e-15
3.81591e-15
3.9414e-15
4.07062e-15
4.20368e-15
4.34069e-15
4.48177e-15
4.62702e-15
4.77656e-15
4.93053e-15
5.08903e-15
5.2522e-15
5.42018e-15
5.59309e-15
5.77108e-15
5.95429e-15
6.14286e-15
6.33695e-15
6.53671e-15
6.7423e-15
6.95389e-15
7.17163e-15
7.39571e-15
7.62631e-15
7.8636e-15
8.10777e-15
8.35901e-15
8.61753e-15
8.88352e-15
9.15719e-15
9.43875e-15
9.72843e-15
1.00265e-14
1.0333e-14
1.06485e-14
1.09729e-14
1.13067e-14
1.165e-14
1.20031e-14
1.23664e-14
1.274e-14
1.31243e-14
1.35195e-14
1.3926e-14
1.43441e-14
1.4774e-14
1.52161e-14
1.56708e-14
1.61384e-14
1.66192e-14
1.71136e-14
1.7622e-14
1.81447e-14
1.86821e-14
1.92347e-14
1.98028e-14
2.03869e-14
2.09874e-14
2.16048e-14
2.22394e-14
2.28919e-14
2.35625e-14
2.42519e-14
2.49605e-14
2.56889e-14
2.64375e-14
2.7207e-14
2.79979e-14
2.88107e-14
2.9646e-14
3.05045e-14
3.13867e-14
3.22933e-14
3.3225e-14
3.41823e-14
3.5166e-14
3.61767e-14
3.72152e-14
3.82822e-14
3.93785e-14
4.05048e-14
4.16619e-14
4.28505e-14
4.40717e-14
4.53261e-14
4.66146e-14
4.79382e-14
4.92977e-14
5.06941e-14
5.21283e-14
5.36013e-14
5.51141e-14
5.66678e-14
5.82633e-14
5.99017e-14
6.15842e-14
6.33119e-14
6.50859e-14
6.69074e-14
6.87776e-14
7.06977e-14
7.26691e-14
7.46929e-14
7.67706e-14
7.89035e-14
8.10929e-14
8.33404e-14
8.56472e-14
8.8015e-14
9.04453e-14
9.29396e-14
9.54994e-14
9.81265e-14
1.00822e-13
1.03589e-13
1.06428e-13
1.09341e-13
1.1233e-13
1.15397e-13
1.18543e-13
1.21771e-13
1.25083e-13
1.2848e-13
1.31965e-13
1.3554e-13
1.39207e-13
1.42968e-13
1.46826e-13
1.50783e-13
1.54841e-13
1.59002e-13
1.6327e-13
1.67646e-13
1.72133e-13
1.76734e-13
1.81452e-13
1.86289e-13
1.91248e-13
1.96331e-13
2.01543e-13
2.06886e-13
2.12362e-13
2.17975e-13
2.23729e-13
2.29626e-13
2.3567e-13
2.41863e-13
2.48211e-13
2.54715e-13
2.6138e-13
2.68209e-13
2.75206e-13
2.82375e-13
2.89719e-13
2.97243e-13
3.04951e-13
3.12847e-13
3.20934e-13
3.29218e-13
3.37702e-13
3.46392e-13
3.55291e-13
3.64404e-13
3.73736e-13
3.83291e-13
3.93075e-13
4.03093e-13
4.13349e-13
4.23848e-13
4.34597e-13
4.456e-13
4.56862e-13
4.6839e-13
4.80188e-13
4.92263e-13
5.0462e-13
5.17266e-13
5.30206e-13
5.43447e-13
5.56994e-13
5.70854e-13
5.85034e-13
5.9954e-13
6.14379e-13
6.29557e-13
6.45081e-13
6.60959e-13
6.77197e-13
6.93802e-13
7.10783e-13
7.28145e-13
7.45898e-13
7.64048e-13
7.82603e-13
8.0157e-13
8.20959e-13
8.40776e-13
8.61031e-13
8.8173e-13
9.02883e-13
9.24498e-13
9.46583e-13
9.69147e-13
9.92199e-13
1.01575e-12
1.0398e-12
1.06437e-12
1.08945e-12
1.11508e-12
1.14124e-12
1.16795e-12
1.19522e-12
1.22306e-12
1.25147e-12
1.28047e-12
1.31006e-12
1.34026e-12
1.37107e-12
1.40251e-12
1.43457e-12
1.46727e-12
1.50061e-12
1.53462e-12
1.56928e-12
1.60462e-12
1.64063e-12
1.67733e-12
1.71472e-12
1.7528e-12
1.79159e-12
1.83109e-12
1.87131e-12
1.91224e-12
1.95389e-12
1.99626e-12
2.03936e-12
2.08318e-12
2.12772e-12
2.17299e-12
2.21897e-12
2.26566e-12
2.31306e-12
2.36116e-12
2.40994e-12
2.4594e-12
2.50951e-12
2.56026e-12
2.61163e-12
2.6636e-12
2.71613e-12
2.76919e-12
2.82276e-12
2.87678e-12
2.93121e-12
2.986e-12
3.04109e-12
3.09643e-12
3.15193e-12
3.20751e-12
3.2631e-12
3.31859e-12
3.37387e-12
3.42884e-12
3.48334e-12
3.53725e-12
3.5904e-12
3.64262e-12
3.69372e-12
3.74348e-12
3.79168e-12
3.83806e-12
3.88234e-12
3.92422e-12
3.96335e-12
3.99938e-12
4.03189e-12
4.06043e-12
4.08451e-12
4.10358e-12
4.11702e-12
4.12413e-12
3.39989e-19
1.08951e-18
1.91176e-18
2.81137e-18
3.79362e-18
4.86375e-18
6.02697e-18
7.2884e-18
8.6532e-18
1.01266e-17
1.17138e-17
1.34204e-17
1.52517e-17
1.72136e-17
1.93118e-17
2.15523e-17
2.39412e-17
2.64849e-17
2.91898e-17
3.20626e-17
3.51101e-17
3.83394e-17
4.17576e-17
4.53721e-17
4.91905e-17
5.32206e-17
5.74704e-17
6.1948e-17
6.66618e-17
7.16205e-17
7.68327e-17
8.23076e-17
8.80543e-17
9.40824e-17
1.00402e-16
1.07022e-16
1.13953e-16
1.21206e-16
1.28791e-16
1.36719e-16
1.45002e-16
1.53651e-16
1.62677e-16
1.72093e-16
1.81912e-16
1.92145e-16
2.02807e-16
2.13909e-16
2.25467e-16
2.37494e-16
2.50004e-16
2.63012e-16
2.76534e-16
2.90585e-16
3.05181e-16
3.20338e-16
3.36074e-16
3.52405e-16
3.69349e-16
3.86924e-16
4.0515e-16
4.24045e-16
4.43629e-16
4.63923e-16
4.84946e-16
5.06722e-16