/*--------------------------------*- C++ -*----------------------------------*\
  =========                 |
  \\      /  F ield         | OpenFOAM: The Open Source CFD Toolbox
   \\    /   O peration     | Website:  https://openfoam.org
    \\  /    A nd           | Version:  dev
     \\/     M anipulation  |
\*---------------------------------------------------------------------------*/
FoamFile
{
    format      ascii;
    class       volScalarField;
    location    "0.38";
    object      beta;
}
// * * * * * * * * * * * * * * * * * * * * * * * * * * * * * * * * * * * * * //

dimensions      [0 0 0 0 0 0 0];

internalField   uniform 0;

boundaryField
{
    frontAndBack
    {
        type            empty;
    }
    inlet
    {
        type            calculated;
        value           uniform 0;
    }
    outlet
    {
        type            calculated;
        value           uniform 0;
    }
    substrate
    {
        type            calculated;
        value           nonuniform List<scalar> 
400
(
0.00276608
0.00290564
0.00300803
0.00310162
0.00319055
0.00327519
0.00335654
0.00343547
0.00351263
0.00358845
0.00366328
0.00373739
0.00381096
0.00388416
0.00395709
0.00402986
0.00410251
0.00417508
0.00424762
0.00432013
0.00439261
0.00446507
0.0045375
0.00460988
0.00468221
0.00475444
0.00482658
0.00489859
0.00497045
0.00504214
0.00511363
0.00518489
0.00525591
0.00532665
0.0053971
0.00546722
0.005537
0.0056064
0.00567542
0.00574402
0.00581218
0.00587989
0.00594713
0.00601386
0.00608009
0.00614578
0.00621093
0.00627551
0.00633951
0.00640292
0.00646572
0.0065279
0.00658944
0.00665035
0.00671059
0.00677017
0.00682908
0.0068873
0.00694484
0.00700168
0.00705781
0.00711323
0.00716794
0.00722194
0.00727521
0.00732775
0.00737957
0.00743066
0.00748102
0.00753065
0.00757955
0.00762771
0.00767515
0.00772186
0.00776784
0.0078131
0.00785764
0.00790146
0.00794456
0.00798696
0.00802864
0.00806963
0.00810992
0.00814951
0.00818842
0.00822665
0.0082642
0.00830108
0.0083373
0.00837287
0.00840778
0.00844205
0.00847569
0.0085087
0.00854109
0.00857286
0.00860403
0.0086346
0.00866458
0.00869398
0.0087228
0.00875106
0.00877876
0.0088059
0.00883251
0.00885858
0.00888412
0.00890915
0.00893367
0.00895768
0.0089812
0.00900423
0.00902679
0.00904887
0.0090705
0.00909167
0.00911239
0.00913267
0.00915252
0.00917195
0.00919097
0.00920957
0.00922778
0.00924559
0.00926302
0.00928006
0.00929674
0.00931305
0.009329
0.0093446
0.00935986
0.00937478
0.00938937
0.00940364
0.00941758
0.00943122
0.00944455
0.00945759
0.00947033
0.00948278
0.00949495
0.00950685
0.00951847
0.00952984
0.00954094
0.0095518
0.0095624
0.00957276
0.00958289
0.00959278
0.00960245
0.00961189
0.00962112
0.00963013
0.00963893
0.00964753
0.00965594
0.00966414
0.00967216
0.00967999
0.00968764
0.00969511
0.0097024
0.00970952
0.00971648
0.00972328
0.00972991
0.00973639
0.00974272
0.0097489
0.00975493
0.00976082
0.00976658
0.00977219
0.00977768
0.00978303
0.00978826
0.00979336
0.00979835
0.00980321
0.00980796
0.0098126
0.00981712
0.00982154
0.00982586
0.00983007
0.00983418
0.00983819
0.00984211
0.00984593
0.00984967
0.00985331
0.00985687
0.00986034
0.00986372
0.00986703
0.00987026
0.00987341
0.00987648
0.00987949
0.00988241
0.00988527
0.00988806
0.00989079
0.00989344
0.00989604
0.00989857
0.00990104
0.00990345
0.0099058
0.0099081
0.00991034
0.00991253
0.00991466
0.00991675
0.00991878
0.00992076
0.0099227
0.00992459
0.00992643
0.00992823
0.00992999
0.0099317
0.00993337
0.009935
0.00993659
0.00993815
0.00993966
0.00994114
0.00994258
0.00994399
0.00994537
0.00994671
0.00994802
0.00994929
0.00995054
0.00995175
0.00995294
0.0099541
0.00995523
0.00995633
0.0099574
0.00995845
0.00995948
0.00996048
0.00996145
0.0099624
0.00996333
0.00996423
0.00996512
0.00996598
0.00996682
0.00996764
0.00996844
0.00996922
0.00996998
0.00997073
0.00997145
0.00997216
0.00997285
0.00997353
0.00997418
0.00997482
0.00997545
0.00997606
0.00997666
0.00997724
0.0099778
0.00997836
0.0099789
0.00997942
0.00997994
0.00998044
0.00998093
0.0099814
0.00998187
0.00998232
0.00998277
0.0099832
0.00998362
0.00998403
0.00998443
0.00998482
0.0099852
0.00998558
0.00998594
0.00998629
0.00998664
0.00998698
0.00998731
0.00998763
0.00998794
0.00998825
0.00998854
0.00998883
0.00998912
0.00998939
0.00998966
0.00998993
0.00999018
0.00999043
0.00999068
0.00999091
0.00999115
0.00999137
0.00999159
0.00999181
0.00999202
0.00999222
0.00999242
0.00999262
0.00999281
0.00999299
0.00999318
0.00999335
0.00999352
0.00999369
0.00999385
0.00999401
0.00999417
0.00999432
0.00999447
0.00999461
0.00999475
0.00999489
0.00999502
0.00999515
0.00999528
0.0099954
0.00999553
0.00999564
0.00999576
0.00999587
0.00999598
0.00999608
0.00999619
0.00999629
0.00999639
0.00999648
0.00999658
0.00999667
0.00999676
0.00999684
0.00999693
0.00999701
0.00999709
0.00999717
0.00999724
0.00999732
0.00999739
0.00999746
0.00999753
0.0099976
0.00999766
0.00999773
0.00999779
0.00999785
0.00999791
0.00999796
0.00999802
0.00999807
0.00999813
0.00999818
0.00999823
0.00999828
0.00999832
0.00999837
0.00999841
0.00999846
0.0099985
0.00999854
0.00999858
0.00999862
0.00999866
0.0099987
0.00999873
0.00999877
0.0099988
0.00999883
0.00999886
0.00999889
0.00999892
0.00999895
0.00999898
0.009999
0.00999903
0.00999905
0.00999908
0.0099991
0.00999912
0.00999914
0.00999915
0.00999917
0.00999918
0.0099992
0.00999921
0.00999922
0.00999922
0.00999923
0.00999923
)
;
    }
    Wall
    {
        type            calculated;
        value           nonuniform List<scalar> 
400
(
0.00276608
0.00290564
0.00300802
0.00310161
0.00319055
0.0032752
0.00335655
0.00343549
0.00351265
0.00358847
0.00366331
0.00373741
0.00381099
0.00388418
0.00395712
0.00402988
0.00410253
0.0041751
0.00424764
0.00432014
0.00439263
0.00446509
0.00453751
0.00460989
0.00468221
0.00475445
0.00482659
0.00489859
0.00497045
0.00504214
0.00511363
0.00518489
0.00525591
0.00532665
0.00539709
0.00546721
0.00553699
0.00560639
0.00567541
0.00574401
0.00581217
0.00587988
0.00594711
0.00601385
0.00608007
0.00614577
0.00621091
0.00627549
0.0063395
0.0064029
0.0064657
0.00652788
0.00658943
0.00665033
0.00671057
0.00677015
0.00682906
0.00688729
0.00694482
0.00700166
0.00705779
0.00711321
0.00716792
0.00722192
0.00727519
0.00732773
0.00737955
0.00743064
0.007481
0.00753063
0.00757952
0.00762769
0.00767513
0.00772184
0.00776782
0.00781308
0.00785762
0.00790144
0.00794454
0.00798694
0.00802863
0.00806961
0.0081099
0.00814949
0.0081884
0.00822663
0.00826418
0.00830106
0.00833728
0.00837285
0.00840776
0.00844204
0.00847567
0.00850868
0.00854107
0.00857285
0.00860401
0.00863459
0.00866457
0.00869396
0.00872279
0.00875105
0.00877874
0.00880589
0.0088325
0.00885857
0.00888411
0.00890914
0.00893365
0.00895767
0.00898119
0.00900422
0.00902678
0.00904886
0.00907049
0.00909166
0.00911238
0.00913266
0.00915252
0.00917194
0.00919096
0.00920956
0.00922777
0.00924558
0.00926301
0.00928005
0.00929673
0.00931304
0.00932899
0.00934459
0.00935985
0.00937477
0.00938936
0.00940363
0.00941758
0.00943121
0.00944455
0.00945758
0.00947032
0.00948277
0.00949494
0.00950684
0.00951847
0.00952983
0.00954094
0.00955179
0.0095624
0.00957276
0.00958288
0.00959278
0.00960244
0.00961188
0.00962111
0.00963012
0.00963893
0.00964753
0.00965593
0.00966414
0.00967215
0.00967998
0.00968763
0.0096951
0.0097024
0.00970952
0.00971648
0.00972327
0.00972991
0.00973639
0.00974272
0.0097489
0.00975493
0.00976082
0.00976657
0.00977219
0.00977767
0.00978303
0.00978826
0.00979336
0.00979834
0.00980321
0.00980796
0.0098126
0.00981712
0.00982154
0.00982586
0.00983007
0.00983418
0.00983819
0.00984211
0.00984593
0.00984966
0.00985331
0.00985686
0.00986033
0.00986372
0.00986703
0.00987026
0.00987341
0.00987648
0.00987948
0.00988241
0.00988527
0.00988806
0.00989079
0.00989344
0.00989604
0.00989857
0.00990104
0.00990345
0.0099058
0.0099081
0.00991034
0.00991253
0.00991466
0.00991675
0.00991878
0.00992076
0.0099227
0.00992459
0.00992643
0.00992823
0.00992998
0.0099317
0.00993337
0.009935
0.00993659
0.00993815
0.00993966
0.00994114
0.00994258
0.00994399
0.00994537
0.00994671
0.00994802
0.00994929
0.00995054
0.00995175
0.00995294
0.0099541
0.00995523
0.00995633
0.0099574
0.00995845
0.00995948
0.00996048
0.00996145
0.0099624
0.00996333
0.00996423
0.00996512
0.00996598
0.00996682
0.00996764
0.00996844
0.00996922
0.00996998
0.00997073
0.00997145
0.00997216
0.00997285
0.00997352
0.00997418
0.00997482
0.00997545
0.00997606
0.00997666
0.00997724
0.0099778
0.00997836
0.0099789
0.00997942
0.00997994
0.00998044
0.00998093
0.0099814
0.00998187
0.00998232
0.00998277
0.0099832
0.00998362
0.00998403
0.00998443
0.00998482
0.0099852
0.00998558
0.00998594
0.00998629
0.00998664
0.00998698
0.00998731
0.00998763
0.00998794
0.00998825
0.00998854
0.00998883
0.00998912
0.00998939
0.00998966
0.00998993
0.00999018
0.00999043
0.00999068
0.00999091
0.00999115
0.00999137
0.00999159
0.00999181
0.00999202
0.00999222
0.00999242
0.00999262
0.00999281
0.00999299
0.00999318
0.00999335
0.00999352
0.00999369
0.00999385
0.00999401
0.00999417
0.00999432
0.00999447
0.00999461
0.00999475
0.00999489
0.00999502
0.00999515
0.00999528
0.0099954
0.00999553
0.00999564
0.00999576
0.00999587
0.00999598
0.00999608
0.00999619
0.00999629
0.00999639
0.00999648
0.00999658
0.00999667
0.00999676
0.00999684
0.00999693
0.00999701
0.00999709
0.00999717
0.00999724
0.00999732
0.00999739
0.00999746
0.00999753
0.0099976
0.00999766
0.00999773
0.00999779
0.00999785
0.00999791
0.00999796
0.00999802
0.00999807
0.00999813
0.00999818
0.00999823
0.00999828
0.00999832
0.00999837
0.00999841
0.00999846
0.0099985
0.00999854
0.00999858
0.00999862
0.00999866
0.0099987
0.00999873
0.00999877
0.0099988
0.00999883
0.00999886
0.00999889
0.00999892
0.00999895
0.00999898
0.009999
0.00999903
0.00999905
0.00999908
0.0099991
0.00999912
0.00999914
0.00999915
0.00999917
0.00999918
0.0099992
0.00999921
0.00999922
0.00999922
0.00999923
0.00999923
)
;
    }
}


// ************************************************************************* //
