/*--------------------------------*- C++ -*----------------------------------*\
  =========                 |
  \\      /  F ield         | OpenFOAM: The Open Source CFD Toolbox
   \\    /   O peration     | Website:  https://openfoam.org
    \\  /    A nd           | Version:  dev
     \\/     M anipulation  |
\*---------------------------------------------------------------------------*/
FoamFile
{
    format      ascii;
    class       volScalarField;
    location    "0.38";
    object      Exp1;
}
// * * * * * * * * * * * * * * * * * * * * * * * * * * * * * * * * * * * * * //

dimensions      [0 0 0 0 0 0 0];

internalField   uniform 0;

boundaryField
{
    frontAndBack
    {
        type            empty;
    }
    inlet
    {
        type            calculated;
        value           uniform 0;
    }
    outlet
    {
        type            calculated;
        value           uniform 0;
    }
    substrate
    {
        type            calculated;
        value           nonuniform List<scalar> 
400
(
3.38541e-10
1.07823e-09
1.89192e-09
2.77609e-09
3.73123e-09
4.76057e-09
5.86721e-09
7.05441e-09
8.32582e-09
9.68541e-09
1.11374e-08
1.26861e-08
1.43362e-08
1.60923e-08
1.79591e-08
1.99415e-08
2.20445e-08
2.42729e-08
2.66318e-08
2.91263e-08
3.17614e-08
3.45423e-08
3.74744e-08
4.05627e-08
4.38128e-08
4.723e-08
5.08198e-08
5.45877e-08
5.85393e-08
6.26804e-08
6.70168e-08
7.15543e-08
7.62988e-08
8.12564e-08
8.64331e-08
9.18352e-08
9.74689e-08
1.03341e-07
1.09457e-07
1.15824e-07
1.22448e-07
1.29337e-07
1.36497e-07
1.43935e-07
1.51658e-07
1.59673e-07
1.67987e-07
1.76607e-07
1.85541e-07
1.94796e-07
2.0438e-07
2.143e-07
2.24565e-07
2.3518e-07
2.46156e-07
2.57499e-07
2.69218e-07
2.81321e-07
2.93816e-07
3.06712e-07
3.20017e-07
3.33739e-07
3.47887e-07
3.6247e-07
3.77497e-07
3.92977e-07
4.08918e-07
4.2533e-07
4.42221e-07
4.59602e-07
4.77481e-07
4.95867e-07
5.14771e-07
5.34202e-07
5.54169e-07
5.74683e-07
5.95752e-07
6.17387e-07
6.39597e-07
6.62394e-07
6.85785e-07
7.09782e-07
7.34395e-07
7.59633e-07
7.85508e-07
8.12028e-07
8.39205e-07
8.67049e-07
8.95569e-07
9.24777e-07
9.54682e-07
9.85295e-07
1.01663e-06
1.04869e-06
1.08148e-06
1.11503e-06
1.14933e-06
1.18441e-06
1.22026e-06
1.2569e-06
1.29435e-06
1.3326e-06
1.37167e-06
1.41157e-06
1.4523e-06
1.49389e-06
1.53633e-06
1.57964e-06
1.62382e-06
1.66889e-06
1.71485e-06
1.76172e-06
1.80949e-06
1.85819e-06
1.90781e-06
1.95837e-06
2.00987e-06
2.06232e-06
2.11573e-06
2.1701e-06
2.22544e-06
2.28176e-06
2.33907e-06
2.39736e-06
2.45665e-06
2.51694e-06
2.57824e-06
2.64055e-06
2.70387e-06
2.76821e-06
2.83357e-06
2.89995e-06
2.96736e-06
3.0358e-06
3.10527e-06
3.17578e-06
3.24731e-06
3.31989e-06
3.39349e-06
3.46813e-06
3.5438e-06
3.6205e-06
3.69823e-06
3.77698e-06
3.85676e-06
3.93756e-06
4.01937e-06
4.10219e-06
4.18602e-06
4.27084e-06
4.35666e-06
4.44346e-06
4.53124e-06
4.61998e-06
4.70969e-06
4.80034e-06
4.89193e-06
4.98446e-06
5.07789e-06
5.17223e-06
5.26747e-06
5.36357e-06
5.46055e-06
5.55836e-06
5.65701e-06
5.75648e-06
5.85674e-06
5.95779e-06
6.05959e-06
6.16214e-06
6.26541e-06
6.36938e-06
6.47403e-06
6.57933e-06
6.68528e-06
6.79183e-06
6.89898e-06
7.00668e-06
7.11492e-06
7.22368e-06
7.33292e-06
7.44261e-06
7.55274e-06
7.66326e-06
7.77415e-06
7.88539e-06
7.99693e-06
8.10876e-06
8.22083e-06
8.33311e-06
8.44558e-06
8.5582e-06
8.67093e-06
8.78373e-06
8.89659e-06
9.00945e-06
9.12228e-06
9.23506e-06
9.34773e-06
9.46026e-06
9.57262e-06
9.68477e-06
9.79666e-06
9.90826e-06
1.00195e-05
1.01304e-05
1.02409e-05
1.0351e-05
1.04606e-05
1.05696e-05
1.06781e-05
1.07859e-05
1.08931e-05
1.09996e-05
1.11054e-05
1.12104e-05
1.13146e-05
1.1418e-05
1.15204e-05
1.16219e-05
1.17225e-05
1.1822e-05
1.19205e-05
1.20179e-05
1.21141e-05
1.22092e-05
1.2303e-05
1.23956e-05
1.24869e-05
1.25769e-05
1.26655e-05
1.27527e-05
1.28384e-05
1.29227e-05
1.30054e-05
1.30866e-05
1.31663e-05
1.32443e-05
1.33206e-05
1.33952e-05
1.34682e-05
1.35393e-05
1.36087e-05
1.36763e-05
1.3742e-05
1.38058e-05
1.38678e-05
1.39278e-05
1.39859e-05
1.40419e-05
1.4096e-05
1.4148e-05
1.4198e-05
1.42459e-05
1.42917e-05
1.43354e-05
1.4377e-05
1.44164e-05
1.44536e-05
1.44886e-05
1.45214e-05
1.4552e-05
1.45804e-05
1.46066e-05
1.46304e-05
1.46521e-05
1.46714e-05
1.46885e-05
1.47033e-05
1.47157e-05
1.47259e-05
1.47338e-05
1.47394e-05
1.47427e-05
1.47437e-05
1.47424e-05
1.47388e-05
1.47329e-05
1.47247e-05
1.47142e-05
1.47014e-05
1.46864e-05
1.46691e-05
1.46495e-05
1.46277e-05
1.46037e-05
1.45775e-05
1.4549e-05
1.45184e-05
1.44856e-05
1.44506e-05
1.44135e-05
1.43743e-05
1.4333e-05
1.42897e-05
1.42442e-05
1.41968e-05
1.41473e-05
1.40959e-05
1.40425e-05
1.39871e-05
1.39299e-05
1.38708e-05
1.38098e-05
1.3747e-05
1.36825e-05
1.36161e-05
1.35481e-05
1.34783e-05
1.34069e-05
1.33339e-05
1.32592e-05
1.3183e-05
1.31053e-05
1.3026e-05
1.29454e-05
1.28632e-05
1.27797e-05
1.26949e-05
1.26087e-05
1.25213e-05
1.24326e-05
1.23427e-05
1.22517e-05
1.21595e-05
1.20663e-05
1.1972e-05
1.18767e-05
1.17804e-05
1.16832e-05
1.15851e-05
1.14862e-05
1.13864e-05
1.12858e-05
1.11846e-05
1.10826e-05
1.098e-05
1.08767e-05
1.07729e-05
1.06685e-05
1.05637e-05
1.04583e-05
1.03526e-05
1.02465e-05
1.014e-05
1.00332e-05
9.92613e-06
9.81883e-06
9.71135e-06
9.60371e-06
9.49595e-06
9.38812e-06
9.28024e-06
9.17236e-06
9.06452e-06
8.95675e-06
8.8491e-06
8.7416e-06
8.63429e-06
8.52721e-06
8.4204e-06
8.31391e-06
8.20778e-06
8.10205e-06
7.99676e-06
7.89196e-06
7.78771e-06
7.68404e-06
7.58102e-06
7.4787e-06
7.37713e-06
7.27639e-06
7.17652e-06
7.07762e-06
6.97974e-06
6.88298e-06
6.78742e-06
6.69315e-06
6.60029e-06
6.50894e-06
6.41923e-06
6.33131e-06
6.24531e-06
6.1614e-06
6.07978e-06
6.00063e-06
5.92418e-06
5.85069e-06
5.78041e-06
5.71366e-06
5.65075e-06
5.59205e-06
5.53796e-06
5.48891e-06
5.44535e-06
5.40778e-06
5.37673e-06
5.35272e-06
5.33628e-06
5.32787e-06
)
;
    }
    Wall
    {
        type            calculated;
        value           nonuniform List<scalar> 
400
(
3.38536e-10
1.07822e-09
1.89188e-09
2.77604e-09
3.73116e-09
4.76047e-09
5.86708e-09
7.05424e-09
8.32562e-09
9.68516e-09
1.11371e-08
1.26858e-08
1.43358e-08
1.60918e-08
1.79585e-08
1.99409e-08
2.20437e-08
2.4272e-08
2.66309e-08
2.91252e-08
3.17602e-08
3.45411e-08
3.7473e-08
4.05613e-08
4.38112e-08
4.72283e-08
5.0818e-08
5.45857e-08
5.85373e-08
6.26783e-08
6.70146e-08
7.15519e-08
7.62963e-08
8.12538e-08
8.64304e-08
9.18324e-08
9.74659e-08
1.03337e-07
1.09453e-07
1.1582e-07
1.22445e-07
1.29334e-07
1.36493e-07
1.43931e-07
1.51654e-07
1.59668e-07
1.67982e-07
1.76602e-07
1.85536e-07
1.94791e-07
2.04375e-07
2.14295e-07
2.24559e-07
2.35174e-07
2.4615e-07
2.57493e-07
2.69212e-07
2.81314e-07
2.93809e-07
3.06705e-07
3.20009e-07
3.33731e-07
3.47879e-07
3.62462e-07
3.77488e-07
3.92968e-07
4.08908e-07
4.2532e-07
4.42211e-07
4.59591e-07
4.7747e-07
4.95857e-07
5.1476e-07
5.34191e-07
5.54158e-07
5.74671e-07
5.95739e-07
6.17374e-07
6.39584e-07
6.6238e-07
6.85771e-07
7.09767e-07
7.3438e-07
7.59618e-07
7.85492e-07
8.12012e-07
8.39188e-07
8.67032e-07
8.95552e-07
9.24759e-07
9.54663e-07
9.85275e-07
1.01661e-06
1.04866e-06
1.08146e-06
1.11501e-06
1.14931e-06
1.18438e-06
1.22024e-06
1.25688e-06
1.29432e-06
1.33257e-06
1.37164e-06
1.41154e-06
1.45227e-06
1.49386e-06
1.5363e-06
1.57961e-06
1.62379e-06
1.66886e-06
1.71482e-06
1.76169e-06
1.80946e-06
1.85815e-06
1.90778e-06
1.95833e-06
2.00983e-06
2.06228e-06
2.11569e-06
2.17006e-06
2.2254e-06
2.28172e-06
2.33903e-06
2.39732e-06
2.45661e-06
2.5169e-06
2.5782e-06
2.6405e-06
2.70382e-06
2.76816e-06
2.83352e-06
2.8999e-06
2.96731e-06
3.03575e-06
3.10522e-06
3.17572e-06
3.24726e-06
3.31983e-06
3.39343e-06
3.46807e-06
3.54374e-06
3.62044e-06
3.69817e-06
3.77692e-06
3.8567e-06
3.93749e-06
4.01931e-06
4.10213e-06
4.18595e-06
4.27077e-06
4.35659e-06
4.44339e-06
4.53117e-06
4.61991e-06
4.70961e-06
4.80027e-06
4.89186e-06
4.98438e-06
5.07782e-06
5.17216e-06
5.26739e-06
5.36349e-06
5.46046e-06
5.55828e-06
5.65693e-06
5.75639e-06
5.85666e-06
5.9577e-06
6.0595e-06
6.16205e-06
6.26531e-06
6.36928e-06
6.47393e-06
6.57924e-06
6.68518e-06
6.79174e-06
6.89888e-06
7.00658e-06
7.11482e-06
7.22358e-06
7.33281e-06
7.44251e-06
7.55263e-06
7.66315e-06
7.77405e-06
7.88528e-06
7.99683e-06
8.10865e-06
8.22072e-06
8.333e-06
8.44547e-06
8.55808e-06
8.67081e-06
8.78362e-06
8.89647e-06
9.00933e-06
9.12217e-06
9.23494e-06
9.34761e-06
9.46014e-06
9.5725e-06
9.68464e-06
9.79654e-06
9.90814e-06
1.00194e-05
1.01303e-05
1.02408e-05
1.03509e-05
1.04604e-05
1.05695e-05
1.06779e-05
1.07858e-05
1.0893e-05
1.09995e-05
1.11053e-05
1.12103e-05
1.13145e-05
1.14178e-05
1.15203e-05
1.16218e-05
1.17224e-05
1.18219e-05
1.19204e-05
1.20177e-05
1.2114e-05
1.2209e-05
1.23029e-05
1.23955e-05
1.24868e-05
1.25767e-05
1.26653e-05
1.27525e-05
1.28383e-05
1.29226e-05
1.30053e-05
1.30865e-05
1.31661e-05
1.32441e-05
1.33205e-05
1.33951e-05
1.3468e-05
1.35392e-05
1.36086e-05
1.36761e-05
1.37419e-05
1.38057e-05
1.38677e-05
1.39277e-05
1.39857e-05
1.40418e-05
1.40959e-05
1.41479e-05
1.41979e-05
1.42458e-05
1.42916e-05
1.43353e-05
1.43768e-05
1.44162e-05
1.44534e-05
1.44885e-05
1.45213e-05
1.45519e-05
1.45803e-05
1.46064e-05
1.46303e-05
1.46519e-05
1.46713e-05
1.46884e-05
1.47031e-05
1.47156e-05
1.47258e-05
1.47337e-05
1.47393e-05
1.47426e-05
1.47436e-05
1.47423e-05
1.47387e-05
1.47328e-05
1.47246e-05
1.47141e-05
1.47013e-05
1.46863e-05
1.4669e-05
1.46494e-05
1.46276e-05
1.46036e-05
1.45774e-05
1.45489e-05
1.45183e-05
1.44855e-05
1.44505e-05
1.44135e-05
1.43742e-05
1.4333e-05
1.42896e-05
1.42442e-05
1.41967e-05
1.41472e-05
1.40958e-05
1.40424e-05
1.3987e-05
1.39298e-05
1.38707e-05
1.38097e-05
1.3747e-05
1.36824e-05
1.36161e-05
1.3548e-05
1.34783e-05
1.34068e-05
1.33338e-05
1.32592e-05
1.31829e-05
1.31052e-05
1.3026e-05
1.29453e-05
1.28632e-05
1.27797e-05
1.26948e-05
1.26087e-05
1.25213e-05
1.24326e-05
1.23427e-05
1.22517e-05
1.21595e-05
1.20663e-05
1.1972e-05
1.18767e-05
1.17804e-05
1.16832e-05
1.15851e-05
1.14861e-05
1.13864e-05
1.12858e-05
1.11846e-05
1.10826e-05
1.098e-05
1.08767e-05
1.07729e-05
1.06685e-05
1.05637e-05
1.04583e-05
1.03526e-05
1.02465e-05
1.014e-05
1.00332e-05
9.92612e-06
9.81883e-06
9.71134e-06
9.60371e-06
9.49595e-06
9.38811e-06
9.28024e-06
9.17236e-06
9.06452e-06
8.95675e-06
8.8491e-06
8.74159e-06
8.63428e-06
8.52721e-06
8.4204e-06
8.31391e-06
8.20778e-06
8.10205e-06
7.99676e-06
7.89197e-06
7.78772e-06
7.68405e-06
7.58103e-06
7.47871e-06
7.37714e-06
7.2764e-06
7.17653e-06
7.07763e-06
6.97975e-06
6.88299e-06
6.78743e-06
6.69316e-06
6.6003e-06
6.50895e-06
6.41925e-06
6.33132e-06
6.24532e-06
6.16142e-06
6.07979e-06
6.00064e-06
5.9242e-06
5.85071e-06
5.78043e-06
5.71368e-06
5.65077e-06
5.59208e-06
5.53799e-06
5.48893e-06
5.44538e-06
5.40781e-06
5.37676e-06
5.35276e-06
5.33632e-06
5.32791e-06
)
;
    }
}


// ************************************************************************* //
