/*--------------------------------*- C++ -*----------------------------------*\
  =========                 |
  \\      /  F ield         | OpenFOAM: The Open Source CFD Toolbox
   \\    /   O peration     | Website:  https://openfoam.org
    \\  /    A nd           | Version:  dev
     \\/     M anipulation  |
\*---------------------------------------------------------------------------*/
FoamFile
{
    format      ascii;
    class       volScalarField;
    location    "0.38";
    object      growth;
}
// * * * * * * * * * * * * * * * * * * * * * * * * * * * * * * * * * * * * * //

dimensions      [0 0 0 0 0 0 0];

internalField   uniform 0;

boundaryField
{
    frontAndBack
    {
        type            empty;
    }
    inlet
    {
        type            calculated;
        value           uniform 0;
    }
    outlet
    {
        type            calculated;
        value           uniform 0;
    }
    substrate
    {
        type            calculated;
        value           nonuniform List<scalar> 
400
(
0.723392
0.709436
0.699197
0.689838
0.680945
0.672481
0.664346
0.656453
0.648737
0.641155
0.633672
0.626261
0.618904
0.611584
0.604291
0.597014
0.589749
0.582492
0.575238
0.567987
0.560739
0.553493
0.54625
0.539012
0.531779
0.524556
0.517342
0.510141
0.502955
0.495786
0.488637
0.481511
0.474409
0.467335
0.46029
0.453278
0.4463
0.43936
0.432458
0.425598
0.418782
0.412011
0.405287
0.398614
0.391991
0.385422
0.378907
0.372449
0.366049
0.359708
0.353428
0.34721
0.341056
0.334965
0.328941
0.322983
0.317092
0.31127
0.305516
0.299832
0.294219
0.288677
0.283206
0.277806
0.272479
0.267225
0.262043
0.256934
0.251898
0.246935
0.242045
0.237229
0.232485
0.227814
0.223216
0.21869
0.214236
0.209854
0.205544
0.201304
0.197136
0.193037
0.189008
0.185049
0.181158
0.177335
0.17358
0.169892
0.16627
0.162713
0.159222
0.155795
0.152431
0.14913
0.145891
0.142714
0.139597
0.13654
0.133542
0.130602
0.12772
0.124894
0.122124
0.11941
0.116749
0.114142
0.111588
0.109085
0.106633
0.104232
0.10188
0.0995767
0.0973212
0.0951126
0.0929503
0.0908334
0.0887612
0.0867328
0.0847475
0.0828046
0.0809032
0.0790426
0.0772221
0.075441
0.0736984
0.0719938
0.0703263
0.0686952
0.0671
0.0655398
0.064014
0.062522
0.061063
0.0596364
0.0582416
0.0568779
0.0555447
0.0542415
0.0529675
0.0517222
0.0505049
0.0493152
0.0481525
0.0470161
0.0459056
0.0448204
0.0437599
0.0427237
0.0417112
0.0407219
0.0397553
0.038811
0.0378884
0.0369871
0.0361067
0.0352466
0.0344064
0.0335857
0.0327841
0.0320011
0.0312364
0.0304894
0.0297599
0.0290475
0.0283517
0.0276722
0.0270087
0.0263607
0.0257279
0.0251101
0.0245067
0.0239176
0.0233423
0.0227806
0.0222322
0.0216968
0.021174
0.0206636
0.0201653
0.0196788
0.0192038
0.0187402
0.0182875
0.0178456
0.0174142
0.0169931
0.016582
0.0161807
0.015789
0.0154066
0.0150334
0.0146691
0.0143135
0.0139664
0.0136275
0.0132968
0.0129741
0.012659
0.0123515
0.0120514
0.0117585
0.0114726
0.0111936
0.0109213
0.0106555
0.0103961
0.010143
0.00989592
0.00965481
0.0094195
0.00918986
0.00896575
0.00874705
0.00853361
0.00832532
0.00812205
0.00792369
0.00773011
0.00754121
0.00735687
0.00717698
0.00700144
0.00683013
0.00666297
0.00649985
0.00634068
0.00618535
0.00603378
0.00588588
0.00574156
0.00560073
0.00546331
0.00532922
0.00519838
0.0050707
0.00494612
0.00482456
0.00470595
0.00459021
0.00447728
0.00436709
0.00425957
0.00415466
0.0040523
0.00395241
0.00385496
0.00375987
0.00366709
0.00357656
0.00348823
0.00340205
0.00331796
0.00323592
0.00315587
0.00307776
0.00300156
0.00292721
0.00285466
0.00278389
0.00271483
0.00264746
0.00258172
0.00251759
0.00245502
0.00239397
0.00233441
0.0022763
0.0022196
0.00216429
0.00211033
0.00205768
0.00200632
0.00195621
0.00190732
0.00185963
0.0018131
0.00176771
0.00172343
0.00168022
0.00163808
0.00159696
0.00155685
0.00151772
0.00147955
0.00144232
0.00140599
0.00137056
0.00133599
0.00130227
0.00126937
0.00123729
0.00120599
0.00117545
0.00114567
0.00111662
0.00108828
0.00106064
0.00103368
0.00100738
0.000981732
0.000956712
0.000932309
0.000908508
0.000885293
0.000862651
0.000840567
0.000819029
0.000798023
0.000777536
0.000757556
0.00073807
0.000719067
0.000700534
0.00068246
0.000664835
0.000647648
0.000630887
0.000614542
0.000598604
0.000583063
0.000567909
0.000553132
0.000538723
0.000524674
0.000510976
0.00049762
0.000484598
0.000471902
0.000459524
0.000447457
0.000435692
0.000424222
0.000413041
0.000402141
0.000391515
0.000381157
0.000371061
0.000361219
0.000351626
0.000342276
0.000333162
0.00032428
0.000315623
0.000307185
0.000298963
0.00029095
0.000283141
0.000275531
0.000268116
0.000260891
0.000253851
0.000246992
0.000240309
0.000233799
0.000227456
0.000221277
0.000215258
0.000209396
0.000203686
0.000198125
0.000192709
0.000187436
0.000182301
0.000177303
0.000172436
0.0001677
0.000163091
0.000158605
0.000154242
0.000149998
0.000145871
0.000141859
0.000137961
0.000134173
0.000130495
0.000126926
0.000123464
0.000120108
0.000116858
0.000113713
0.000110673
0.000107739
0.000104911
0.000102191
9.95807e-05
9.70814e-05
9.46965e-05
9.24295e-05
9.02847e-05
8.82673e-05
8.63833e-05
8.46398e-05
8.3045e-05
8.1608e-05
8.03393e-05
7.92504e-05
7.83538e-05
7.76627e-05
7.71904e-05
7.69493e-05
)
;
    }
    Wall
    {
        type            calculated;
        value           nonuniform List<scalar> 
400
(
0.723392
0.709436
0.699198
0.689839
0.680945
0.67248
0.664345
0.656451
0.648735
0.641153
0.633669
0.626259
0.618901
0.611582
0.604288
0.597012
0.589747
0.58249
0.575236
0.567986
0.560737
0.553491
0.546249
0.539011
0.531779
0.524555
0.517341
0.510141
0.502955
0.495786
0.488637
0.481511
0.474409
0.467335
0.460291
0.453279
0.446301
0.439361
0.432459
0.425599
0.418783
0.412012
0.405289
0.398615
0.391993
0.385423
0.378909
0.372451
0.36605
0.35971
0.35343
0.347212
0.341057
0.334967
0.328943
0.322985
0.317094
0.311271
0.305518
0.299834
0.294221
0.288679
0.283208
0.277808
0.272481
0.267227
0.262045
0.256936
0.2519
0.246937
0.242048
0.237231
0.232487
0.227816
0.223218
0.218692
0.214238
0.209856
0.205546
0.201306
0.197137
0.193039
0.18901
0.185051
0.18116
0.177337
0.173582
0.169894
0.166272
0.162715
0.159224
0.155796
0.152433
0.149132
0.145893
0.142715
0.139599
0.136541
0.133543
0.130604
0.127721
0.124895
0.122126
0.119411
0.11675
0.114143
0.111589
0.109086
0.106635
0.104233
0.101881
0.0995779
0.0973223
0.0951137
0.0929514
0.0908345
0.0887622
0.0867338
0.0847485
0.0828055
0.0809041
0.0790435
0.077223
0.0754419
0.0736993
0.0719946
0.0703271
0.0686961
0.0671008
0.0655406
0.0640148
0.0625227
0.0610637
0.0596371
0.0582423
0.0568786
0.0555454
0.0542421
0.0529681
0.0517228
0.0505056
0.0493159
0.0481531
0.0470167
0.0459062
0.044821
0.0437605
0.0427242
0.0417117
0.0407224
0.0397559
0.0388115
0.0378889
0.0369876
0.0361071
0.035247
0.0344068
0.0335861
0.0327845
0.0320015
0.0312368
0.0304898
0.0297603
0.0290479
0.0283521
0.0276726
0.0270091
0.0263611
0.0257283
0.0251104
0.024507
0.0239179
0.0233426
0.022781
0.0222325
0.0216971
0.0211743
0.0206639
0.0201656
0.0196791
0.0192041
0.0187404
0.0182878
0.0178459
0.0174145
0.0169933
0.0165822
0.016181
0.0157892
0.0154069
0.0150336
0.0146693
0.0143137
0.0139666
0.0136277
0.013297
0.0129743
0.0126592
0.0123517
0.0120516
0.0117587
0.0114728
0.0111938
0.0109214
0.0106557
0.0103963
0.0101431
0.00989607
0.00965496
0.00941965
0.00919
0.00896589
0.00874718
0.00853374
0.00832545
0.00812218
0.00792382
0.00773024
0.00754133
0.00735699
0.0071771
0.00700155
0.00683025
0.00666308
0.00649996
0.00634078
0.00618545
0.00603388
0.00588598
0.00574165
0.00560082
0.0054634
0.00532931
0.00519847
0.00507079
0.00494621
0.00482465
0.00470603
0.00459029
0.00447736
0.00436717
0.00425965
0.00415473
0.00405237
0.00395248
0.00385503
0.00375994
0.00366715
0.00357662
0.0034883
0.00340211
0.00331802
0.00323598
0.00315592
0.00307782
0.00300161
0.00292726
0.00285472
0.00278394
0.00271488
0.00264751
0.00258177
0.00251763
0.00245506
0.00239401
0.00233445
0.00227634
0.00221965
0.00216433
0.00211037
0.00205772
0.00200636
0.00195625
0.00190736
0.00185967
0.00181314
0.00176774
0.00172346
0.00168026
0.00163811
0.00159699
0.00155688
0.00151775
0.00147958
0.00144234
0.00140602
0.00137058
0.00133601
0.00130229
0.0012694
0.00123731
0.00120601
0.00117548
0.00114569
0.00111664
0.0010883
0.00106066
0.0010337
0.0010074
0.000981751
0.000956731
0.000932328
0.000908526
0.000885311
0.000862668
0.000840584
0.000819046
0.000798039
0.000777552
0.000757571
0.000738085
0.000719081
0.000700548
0.000682474
0.000664849
0.000647661
0.0006309
0.000614555
0.000598617
0.000583075
0.00056792
0.000553143
0.000538734
0.000524685
0.000510987
0.00049763
0.000484608
0.000471912
0.000459534
0.000447466
0.000435701
0.000424231
0.000413049
0.000402149
0.000391523
0.000381165
0.000371068
0.000361227
0.000351633
0.000342283
0.000333169
0.000324286
0.000315629
0.000307192
0.000298969
0.000290956
0.000283147
0.000275537
0.000268122
0.000260897
0.000253857
0.000246997
0.000240314
0.000233803
0.00022746
0.000221282
0.000215263
0.0002094
0.00020369
0.000198129
0.000192713
0.00018744
0.000182305
0.000177306
0.00017244
0.000167703
0.000163094
0.000158609
0.000154245
0.000150001
0.000145874
0.000141862
0.000137963
0.000134176
0.000130498
0.000126928
0.000123466
0.00012011
0.00011686
0.000113715
0.000110675
0.000107741
0.000104914
0.000102193
9.95827e-05
9.70834e-05
9.46984e-05
9.24314e-05
9.02866e-05
8.82691e-05
8.63851e-05
8.46416e-05
8.30467e-05
8.16097e-05
8.0341e-05
7.92521e-05
7.83555e-05
7.76644e-05
7.7192e-05
7.69508e-05
)
;
    }
}


// ************************************************************************* //
