/*--------------------------------*- C++ -*----------------------------------*\
  =========                 |
  \\      /  F ield         | OpenFOAM: The Open Source CFD Toolbox
   \\    /   O peration     | Website:  https://openfoam.org
    \\  /    A nd           | Version:  dev
     \\/     M anipulation  |
\*---------------------------------------------------------------------------*/
FoamFile
{
    format      ascii;
    class       volScalarField;
    location    "0.38";
    object      N1;
}
// * * * * * * * * * * * * * * * * * * * * * * * * * * * * * * * * * * * * * //

dimensions      [0 0 0 0 0 0 0];

internalField   nonuniform List<scalar> 
8000
(
2.57037e-09
8.18852e-09
1.43706e-08
2.109e-08
2.83508e-08
3.61775e-08
4.45937e-08
5.36247e-08
6.32981e-08
7.36446e-08
8.46962e-08
9.64867e-08
1.09051e-07
1.22425e-07
1.36645e-07
1.51748e-07
1.67773e-07
1.84756e-07
2.02738e-07
2.21756e-07
2.4185e-07
2.6306e-07
2.85426e-07
3.08989e-07
3.33789e-07
3.5987e-07
3.87272e-07
4.16038e-07
4.46213e-07
4.7784e-07
5.10963e-07
5.45628e-07
5.8188e-07
6.19766e-07
6.59334e-07
7.0063e-07
7.43703e-07
7.88602e-07
8.35378e-07
8.84079e-07
9.34758e-07
9.87467e-07
1.04226e-06
1.09918e-06
1.15829e-06
1.21965e-06
1.2833e-06
1.34931e-06
1.41773e-06
1.48862e-06
1.56203e-06
1.63803e-06
1.71668e-06
1.79802e-06
1.88214e-06
1.96908e-06
2.05891e-06
2.15169e-06
2.24749e-06
2.34637e-06
2.4484e-06
2.55363e-06
2.66215e-06
2.77401e-06
2.88929e-06
3.00804e-06
3.13035e-06
3.25628e-06
3.38591e-06
3.51929e-06
3.65652e-06
3.79764e-06
3.94275e-06
4.09192e-06
4.24521e-06
4.40271e-06
4.56448e-06
4.73061e-06
4.90117e-06
5.07624e-06
5.25588e-06
5.4402e-06
5.62924e-06
5.82311e-06
6.02187e-06
6.22561e-06
6.43439e-06
6.64831e-06
6.86744e-06
7.09186e-06
7.32165e-06
7.55688e-06
7.79764e-06
8.04401e-06
8.29606e-06
8.55388e-06
8.81754e-06
9.08712e-06
9.36269e-06
9.64434e-06
9.93214e-06
1.02262e-05
1.05265e-05
1.08332e-05
1.11464e-05
1.14661e-05
1.17924e-05
1.21253e-05
1.2465e-05
1.28115e-05
1.31649e-05
1.35253e-05
1.38926e-05
1.4267e-05
1.46486e-05
1.50373e-05
1.54333e-05
1.58367e-05
1.62473e-05
1.66655e-05
1.70911e-05
1.75242e-05
1.79649e-05
1.84132e-05
1.88691e-05
1.93328e-05
1.98042e-05
2.02834e-05
2.07704e-05
2.12652e-05
2.17679e-05
2.22784e-05
2.27969e-05
2.33233e-05
2.38576e-05
2.43999e-05
2.49501e-05
2.55082e-05
2.60744e-05
2.66485e-05
2.72305e-05
2.78204e-05
2.84183e-05
2.90241e-05
2.96377e-05
3.02592e-05
3.08884e-05
3.15255e-05
3.21703e-05
3.28227e-05
3.34828e-05
3.41505e-05
3.48257e-05
3.55083e-05
3.61984e-05
3.68957e-05
3.76002e-05
3.83119e-05
3.90307e-05
3.97564e-05
4.04889e-05
4.12282e-05
4.19741e-05
4.27266e-05
4.34854e-05
4.42506e-05
4.50218e-05
4.57991e-05
4.65822e-05
4.7371e-05
4.81654e-05
4.89652e-05
4.97702e-05
5.05803e-05
5.13953e-05
5.22149e-05
5.30391e-05
5.38676e-05
5.47003e-05
5.55369e-05
5.63772e-05
5.7221e-05
5.80682e-05
5.89184e-05
5.97714e-05
6.06271e-05
6.14852e-05
6.23454e-05
6.32075e-05
6.40713e-05
6.49364e-05
6.58027e-05
6.66699e-05
6.75377e-05
6.84058e-05
6.9274e-05
7.0142e-05
7.10095e-05
7.18763e-05
7.27419e-05
7.36063e-05
7.4469e-05
7.53297e-05
7.61882e-05
7.70442e-05
7.78974e-05
7.87474e-05
7.9594e-05
8.04368e-05
8.12756e-05
8.21099e-05
8.29396e-05
8.37643e-05
8.45837e-05
8.53975e-05
8.62053e-05
8.70069e-05
8.78019e-05
8.85901e-05
8.9371e-05
9.01445e-05
9.09101e-05
9.16676e-05
9.24167e-05
9.3157e-05
9.38883e-05
9.46103e-05
9.53226e-05
9.6025e-05
9.67171e-05
9.73987e-05
9.80694e-05
9.87291e-05
9.93774e-05
0.000100014
0.000100639
0.000101251
0.000101851
0.000102438
0.000103013
0.000103574
0.000104121
0.000104655
0.000105175
0.00010568
0.000106171
0.000106648
0.00010711
0.000107556
0.000107988
0.000108404
0.000108804
0.000109189
0.000109557
0.000109909
0.000110246
0.000110565
0.000110868
0.000111155
0.000111424
0.000111677
0.000111912
0.000112131
0.000112332
0.000112516
0.000112682
0.000112831
0.000112962
0.000113076
0.000113172
0.000113251
0.000113312
0.000113355
0.00011338
0.000113388
0.000113378
0.00011335
0.000113305
0.000113242
0.000113161
0.000113063
0.000112948
0.000112815
0.000112664
0.000112497
0.000112312
0.00011211
0.000111892
0.000111656
0.000111404
0.000111135
0.00011085
0.000110549
0.000110231
0.000109897
0.000109548
0.000109183
0.000108803
0.000108407
0.000107997
0.000107571
0.000107131
0.000106676
0.000106208
0.000105725
0.000105228
0.000104718
0.000104195
0.000103658
0.000103109
0.000102547
0.000101973
0.000101387
0.000100789
0.00010018
9.95596e-05
9.89281e-05
9.8286e-05
9.76335e-05
9.69708e-05
9.62984e-05
9.56164e-05
9.49253e-05
9.42251e-05
9.35163e-05
9.27992e-05
9.2074e-05
9.1341e-05
9.06006e-05
8.9853e-05
8.90986e-05
8.83376e-05
8.75703e-05
8.67971e-05
8.60183e-05
8.52341e-05
8.44448e-05
8.36508e-05
8.28523e-05
8.20496e-05
8.12432e-05
8.04331e-05
7.96198e-05
7.88035e-05
7.79846e-05
7.71633e-05
7.63399e-05
7.55148e-05
7.46882e-05
7.38603e-05
7.30316e-05
7.22023e-05
7.13726e-05
7.0543e-05
6.97136e-05
6.88848e-05
6.80568e-05
6.723e-05
6.64047e-05
6.55812e-05
6.47598e-05
6.39408e-05
6.31246e-05
6.23114e-05
6.15017e-05
6.06957e-05
5.98939e-05
5.90967e-05
5.83043e-05
5.75174e-05
5.67363e-05
5.59615e-05
5.51934e-05
5.44328e-05
5.368e-05
5.29358e-05
5.22009e-05
5.14759e-05
5.07617e-05
5.00592e-05
4.93693e-05
4.8693e-05
4.80316e-05
4.73863e-05
4.67585e-05
4.61498e-05
4.55619e-05
4.49967e-05
4.44562e-05
4.39428e-05
4.3459e-05
4.30076e-05
4.25916e-05
4.22143e-05
4.18793e-05
4.15904e-05
4.13516e-05
4.11669e-05
4.10405e-05
4.09758e-05
2.51799e-09
8.07188e-09
1.42018e-08
2.08985e-08
2.81606e-08
3.60042e-08
4.44502e-08
5.35224e-08
6.32485e-08
7.36588e-08
8.47861e-08
9.66645e-08
1.0933e-07
1.22818e-07
1.37168e-07
1.52417e-07
1.68603e-07
1.85766e-07
2.03946e-07
2.23182e-07
2.43515e-07
2.64987e-07
2.87637e-07
3.1151e-07
3.36646e-07
3.63089e-07
3.90883e-07
4.20072e-07
4.50701e-07
4.82815e-07
5.1646e-07
5.51684e-07
5.88533e-07
6.27056e-07
6.67302e-07
7.09319e-07
7.53159e-07
7.98872e-07
8.4651e-07
8.96124e-07
9.47769e-07
1.0015e-06
1.05736e-06
1.11542e-06
1.17573e-06
1.23834e-06
1.30332e-06
1.37072e-06
1.4406e-06
1.51301e-06
1.58803e-06
1.6657e-06
1.7461e-06
1.82928e-06
1.91531e-06
2.00426e-06
2.09617e-06
2.19113e-06
2.2892e-06
2.39044e-06
2.49492e-06
2.60272e-06
2.71389e-06
2.82851e-06
2.94665e-06
3.06839e-06
3.19378e-06
3.32291e-06
3.45585e-06
3.59267e-06
3.73344e-06
3.87825e-06
4.02716e-06
4.18026e-06
4.33762e-06
4.49931e-06
4.66542e-06
4.83602e-06
5.01119e-06
5.19102e-06
5.37558e-06
5.56494e-06
5.7592e-06
5.95843e-06
6.16271e-06
6.37213e-06
6.58677e-06
6.8067e-06
7.03201e-06
7.26278e-06
7.49909e-06
7.74103e-06
7.98867e-06
8.24211e-06
8.50141e-06
8.76666e-06
9.03795e-06
9.31535e-06
9.59894e-06
9.8888e-06
1.0185e-05
1.04877e-05
1.07968e-05
1.11126e-05
1.1435e-05
1.17641e-05
1.21001e-05
1.24429e-05
1.27927e-05
1.31496e-05
1.35135e-05
1.38846e-05
1.4263e-05
1.46487e-05
1.50417e-05
1.54422e-05
1.58501e-05
1.62656e-05
1.66888e-05
1.71196e-05
1.75581e-05
1.80044e-05
1.84585e-05
1.89205e-05
1.93904e-05
1.98682e-05
2.03541e-05
2.08479e-05
2.13499e-05
2.18599e-05
2.2378e-05
2.29043e-05
2.34388e-05
2.39814e-05
2.45323e-05
2.50913e-05
2.56586e-05
2.6234e-05
2.68177e-05
2.74097e-05
2.80098e-05
2.86181e-05
2.92346e-05
2.98593e-05
3.04921e-05
3.1133e-05
3.17819e-05
3.24389e-05
3.31039e-05
3.37768e-05
3.44577e-05
3.51463e-05
3.58427e-05
3.65468e-05
3.72586e-05
3.79779e-05
3.87047e-05
3.94389e-05
4.01803e-05
4.0929e-05
4.16847e-05
4.24474e-05
4.3217e-05
4.39933e-05
4.47763e-05
4.55657e-05
4.63615e-05
4.71635e-05
4.79716e-05
4.87855e-05
4.96053e-05
5.04306e-05
5.12613e-05
5.20973e-05
5.29384e-05
5.37843e-05
5.46349e-05
5.549e-05
5.63494e-05
5.72129e-05
5.80802e-05
5.89512e-05
5.98256e-05
6.07032e-05
6.15838e-05
6.24671e-05
6.33529e-05
6.4241e-05
6.5131e-05
6.60227e-05
6.69159e-05
6.78103e-05
6.87057e-05
6.96017e-05
7.04981e-05
7.13946e-05
7.22908e-05
7.31867e-05
7.40817e-05
7.49757e-05
7.58683e-05
7.67592e-05
7.76482e-05
7.85349e-05
7.9419e-05
8.03002e-05
8.11782e-05
8.20527e-05
8.29233e-05
8.37898e-05
8.46517e-05
8.55089e-05
8.63609e-05
8.72075e-05
8.80483e-05
8.8883e-05
8.97113e-05
9.05328e-05
9.13472e-05
9.21543e-05
9.29536e-05
9.37449e-05
9.45279e-05
9.53021e-05
9.60674e-05
9.68234e-05
9.75697e-05
9.83061e-05
9.90323e-05
9.97479e-05
0.000100453
0.000101146
0.000101828
0.000102499
0.000103157
0.000103803
0.000104437
0.000105058
0.000105665
0.000106259
0.00010684
0.000107407
0.000107959
0.000108497
0.00010902
0.000109529
0.000110022
0.000110501
0.000110963
0.00011141
0.000111841
0.000112256
0.000112655
0.000113037
0.000113402
0.000113751
0.000114082
0.000114397
0.000114694
0.000114974
0.000115237
0.000115481
0.000115709
0.000115918
0.000116109
0.000116283
0.000116438
0.000116576
0.000116695
0.000116796
0.000116879
0.000116943
0.000116989
0.000117017
0.000117027
0.000117019
0.000116992
0.000116947
0.000116884
0.000116802
0.000116703
0.000116585
0.000116449
0.000116296
0.000116125
0.000115936
0.000115729
0.000115505
0.000115264
0.000115005
0.000114729
0.000114436
0.000114127
0.000113801
0.000113458
0.000113099
0.000112724
0.000112333
0.000111926
0.000111503
0.000111065
0.000110613
0.000110145
0.000109662
0.000109165
0.000108654
0.000108129
0.00010759
0.000107037
0.000106472
0.000105893
0.000105302
0.000104698
0.000104082
0.000103454
0.000102815
0.000102164
0.000101502
0.00010083
0.000100147
9.94537e-05
9.87508e-05
9.80382e-05
9.73164e-05
9.65856e-05
9.58462e-05
9.50985e-05
9.43427e-05
9.35791e-05
9.28082e-05
9.20302e-05
9.12453e-05
9.0454e-05
8.96565e-05
8.88531e-05
8.80442e-05
8.723e-05
8.64109e-05
8.55871e-05
8.47591e-05
8.3927e-05
8.30913e-05
8.22522e-05
8.14099e-05
8.05649e-05
7.97174e-05
7.88678e-05
7.80163e-05
7.71632e-05
7.63089e-05
7.54536e-05
7.45977e-05
7.37414e-05
7.28851e-05
7.2029e-05
7.11735e-05
7.03188e-05
6.94654e-05
6.86134e-05
6.77633e-05
6.69153e-05
6.60697e-05
6.5227e-05
6.43874e-05
6.35513e-05
6.27191e-05
6.18912e-05
6.10679e-05
6.02496e-05
5.94369e-05
5.86301e-05
5.78298e-05
5.70365e-05
5.62507e-05
5.5473e-05
5.47041e-05
5.39447e-05
5.31955e-05
5.24574e-05
5.17312e-05
5.1018e-05
5.03187e-05
4.96347e-05
4.89672e-05
4.83177e-05
4.76877e-05
4.7079e-05
4.64935e-05
4.59334e-05
4.54011e-05
4.48991e-05
4.44304e-05
4.3998e-05
4.36054e-05
4.32563e-05
4.29547e-05
4.27047e-05
4.25108e-05
4.23775e-05
4.23089e-05
2.47089e-09
7.92688e-09
1.39433e-08
2.05372e-08
2.77176e-08
3.54977e-08
4.38956e-08
5.29334e-08
6.26375e-08
7.30374e-08
8.41655e-08
9.60559e-08
1.08745e-07
1.22268e-07
1.36665e-07
1.51974e-07
1.68233e-07
1.85483e-07
2.03765e-07
2.23119e-07
2.43586e-07
2.65208e-07
2.88029e-07
3.1209e-07
3.37435e-07
3.6411e-07
3.92157e-07
4.21624e-07
4.52556e-07
4.84999e-07
5.19002e-07
5.54612e-07
5.91879e-07
6.30852e-07
6.71581e-07
7.14117e-07
7.58512e-07
8.04818e-07
8.53089e-07
9.03378e-07
9.55741e-07
1.01023e-06
1.06691e-06
1.12582e-06
1.18704e-06
1.25061e-06
1.3166e-06
1.38507e-06
1.45607e-06
1.52967e-06
1.60594e-06
1.68492e-06
1.76669e-06
1.85132e-06
1.93886e-06
2.02938e-06
2.12295e-06
2.21964e-06
2.31951e-06
2.42264e-06
2.52909e-06
2.63894e-06
2.75224e-06
2.86909e-06
2.98954e-06
3.11368e-06
3.24158e-06
3.3733e-06
3.50893e-06
3.64855e-06
3.79222e-06
3.94003e-06
4.09206e-06
4.24838e-06
4.40907e-06
4.57421e-06
4.74389e-06
4.91817e-06
5.09715e-06
5.28091e-06
5.46952e-06
5.66308e-06
5.86165e-06
6.06533e-06
6.2742e-06
6.48835e-06
6.70785e-06
6.93278e-06
7.16325e-06
7.39932e-06
7.64109e-06
7.88863e-06
8.14204e-06
8.40139e-06
8.66677e-06
8.93827e-06
9.21596e-06
9.49993e-06
9.79026e-06
1.0087e-05
1.03903e-05
1.07003e-05
1.10169e-05
1.13402e-05
1.16705e-05
1.20076e-05
1.23517e-05
1.2703e-05
1.30613e-05
1.34269e-05
1.37999e-05
1.41801e-05
1.45678e-05
1.49631e-05
1.53659e-05
1.57763e-05
1.61945e-05
1.66204e-05
1.70541e-05
1.74958e-05
1.79453e-05
1.84029e-05
1.88685e-05
1.93422e-05
1.9824e-05
2.0314e-05
2.08122e-05
2.13187e-05
2.18334e-05
2.23565e-05
2.2888e-05
2.34278e-05
2.3976e-05
2.45326e-05
2.50977e-05
2.56712e-05
2.62532e-05
2.68436e-05
2.74425e-05
2.80498e-05
2.86656e-05
2.92898e-05
2.99225e-05
3.05635e-05
3.12129e-05
3.18706e-05
3.25367e-05
3.3211e-05
3.38936e-05
3.45843e-05
3.52831e-05
3.59901e-05
3.6705e-05
3.74278e-05
3.81585e-05
3.8897e-05
3.96432e-05
4.0397e-05
4.11583e-05
4.19271e-05
4.27031e-05
4.34863e-05
4.42767e-05
4.50739e-05
4.5878e-05
4.66888e-05
4.75062e-05
4.83299e-05
4.916e-05
4.99961e-05
5.08381e-05
5.1686e-05
5.25394e-05
5.33983e-05
5.42624e-05
5.51315e-05
5.60055e-05
5.68841e-05
5.77672e-05
5.86545e-05
5.95459e-05
6.0441e-05
6.13396e-05
6.22416e-05
6.31467e-05
6.40546e-05
6.49651e-05
6.58779e-05
6.67929e-05
6.77096e-05
6.86279e-05
6.95474e-05
7.0468e-05
7.13893e-05
7.2311e-05
7.32328e-05
7.41545e-05
7.50758e-05
7.59963e-05
7.69157e-05
7.78338e-05
7.87502e-05
7.96647e-05
8.05768e-05
8.14864e-05
8.2393e-05
8.32963e-05
8.4196e-05
8.50919e-05
8.59835e-05
8.68705e-05
8.77527e-05
8.86296e-05
8.9501e-05
9.03664e-05
9.12257e-05
9.20784e-05
9.29242e-05
9.37627e-05
9.45937e-05
9.54169e-05
9.62318e-05
9.70381e-05
9.78356e-05
9.86239e-05
9.94026e-05
0.000100172
0.00010093
0.000101679
0.000102416
0.000103142
0.000103857
0.00010456
0.000105252
0.000105931
0.000106597
0.00010725
0.00010789
0.000108517
0.00010913
0.000109729
0.000110314
0.000110884
0.00011144
0.00011198
0.000112505
0.000113015
0.000113509
0.000113987
0.000114449
0.000114894
0.000115323
0.000115736
0.000116131
0.000116509
0.00011687
0.000117214
0.00011754
0.000117849
0.000118139
0.000118412
0.000118666
0.000118902
0.00011912
0.00011932
0.000119501
0.000119664
0.000119808
0.000119933
0.00012004
0.000120128
0.000120197
0.000120247
0.000120279
0.000120292
0.000120286
0.000120261
0.000120218
0.000120155
0.000120074
0.000119975
0.000119857
0.00011972
0.000119565
0.000119392
0.0001192
0.000118991
0.000118763
0.000118517
0.000118254
0.000117973
0.000117675
0.000117359
0.000117026
0.000116677
0.00011631
0.000115927
0.000115527
0.000115111
0.000114679
0.000114232
0.000113768
0.00011329
0.000112796
0.000112287
0.000111764
0.000111226
0.000110674
0.000110108
0.000109529
0.000108936
0.00010833
0.000107711
0.00010708
0.000106436
0.000105781
0.000105114
0.000104435
0.000103745
0.000103045
0.000102334
0.000101613
0.000100882
0.000100141
9.93913e-05
9.86325e-05
9.78651e-05
9.70894e-05
9.63056e-05
9.55143e-05
9.47155e-05
9.39098e-05
9.30973e-05
9.22784e-05
9.14535e-05
9.06227e-05
8.97866e-05
8.89453e-05
8.80993e-05
8.72487e-05
8.6394e-05
8.55355e-05
8.46734e-05
8.38081e-05
8.29399e-05
8.20691e-05
8.1196e-05
8.0321e-05
7.94443e-05
7.85663e-05
7.76872e-05
7.68075e-05
7.59273e-05
7.50471e-05
7.4167e-05
7.32875e-05
7.24089e-05
7.15314e-05
7.06554e-05
6.97812e-05
6.89092e-05
6.80397e-05
6.7173e-05
6.63095e-05
6.54495e-05
6.45934e-05
6.37417e-05
6.28947e-05
6.20529e-05
6.12166e-05
6.03864e-05
5.95628e-05
5.87462e-05
5.79373e-05
5.71367e-05
5.6345e-05
5.5563e-05
5.47913e-05
5.40309e-05
5.32826e-05
5.25475e-05
5.18266e-05
5.11212e-05
5.04326e-05
4.97622e-05
4.91117e-05
4.84829e-05
4.78776e-05
4.72982e-05
4.6747e-05
4.62266e-05
4.57401e-05
4.52906e-05
4.48818e-05
4.45173e-05
4.42016e-05
4.3939e-05
4.37344e-05
4.35929e-05
4.35195e-05
2.42406e-09
7.775e-09
1.36665e-08
2.01285e-08
2.71823e-08
3.4846e-08
4.31393e-08
5.20848e-08
6.17085e-08
7.20396e-08
8.31099e-08
9.49535e-08
1.07606e-07
1.21104e-07
1.35486e-07
1.5079e-07
1.67056e-07
1.84324e-07
2.02635e-07
2.22031e-07
2.42552e-07
2.64243e-07
2.87145e-07
3.11304e-07
3.36762e-07
3.63566e-07
3.91761e-07
4.21393e-07
4.52511e-07
4.85161e-07
5.19392e-07
5.55254e-07
5.92796e-07
6.3207e-07
6.73127e-07
7.16019e-07
7.60799e-07
8.07522e-07
8.56241e-07
9.07012e-07
9.59891e-07
1.01494e-06
1.0722e-06
1.13175e-06
1.19364e-06
1.25792e-06
1.32467e-06
1.39394e-06
1.46579e-06
1.54029e-06
1.6175e-06
1.69749e-06
1.78032e-06
1.86605e-06
1.95476e-06
2.04651e-06
2.14137e-06
2.23941e-06
2.34069e-06
2.4453e-06
2.5533e-06
2.66476e-06
2.77975e-06
2.89836e-06
3.02065e-06
3.1467e-06
3.27659e-06
3.41039e-06
3.54818e-06
3.69004e-06
3.83604e-06
3.98627e-06
4.1408e-06
4.29972e-06
4.4631e-06
4.63104e-06
4.8036e-06
4.98088e-06
5.16295e-06
5.34991e-06
5.54183e-06
5.7388e-06
5.9409e-06
6.14822e-06
6.36084e-06
6.57886e-06
6.80235e-06
7.0314e-06
7.2661e-06
7.50654e-06
7.75279e-06
8.00496e-06
8.26312e-06
8.52736e-06
8.79776e-06
9.07442e-06
9.35742e-06
9.64683e-06
9.94276e-06
1.02453e-05
1.05545e-05
1.08704e-05
1.11932e-05
1.15229e-05
1.18597e-05
1.22035e-05
1.25545e-05
1.29127e-05
1.32782e-05
1.36512e-05
1.40316e-05
1.44195e-05
1.48151e-05
1.52183e-05
1.56293e-05
1.60481e-05
1.64748e-05
1.69095e-05
1.73522e-05
1.78029e-05
1.82618e-05
1.87288e-05
1.92041e-05
1.96877e-05
2.01796e-05
2.06798e-05
2.11885e-05
2.17056e-05
2.22313e-05
2.27654e-05
2.33081e-05
2.38594e-05
2.44193e-05
2.49879e-05
2.5565e-05
2.61508e-05
2.67453e-05
2.73484e-05
2.79603e-05
2.85807e-05
2.92099e-05
2.98476e-05
3.0494e-05
3.1149e-05
3.18126e-05
3.24848e-05
3.31654e-05
3.38546e-05
3.45522e-05
3.52582e-05
3.59725e-05
3.6695e-05
3.74258e-05
3.81648e-05
3.89118e-05
3.96668e-05
4.04297e-05
4.12004e-05
4.19788e-05
4.27649e-05
4.35584e-05
4.43593e-05
4.51676e-05
4.59829e-05
4.68053e-05
4.76346e-05
4.84706e-05
4.93132e-05
5.01622e-05
5.10176e-05
5.1879e-05
5.27464e-05
5.36196e-05
5.44983e-05
5.53824e-05
5.62718e-05
5.71661e-05
5.80653e-05
5.8969e-05
5.98771e-05
6.07894e-05
6.17056e-05
6.26254e-05
6.35487e-05
6.44752e-05
6.54047e-05
6.63369e-05
6.72715e-05
6.82082e-05
6.91469e-05
7.00872e-05
7.10289e-05
7.19717e-05
7.29152e-05
7.38592e-05
7.48035e-05
7.57476e-05
7.66913e-05
7.76343e-05
7.85763e-05
7.95169e-05
8.04559e-05
8.1393e-05
8.23277e-05
8.32598e-05
8.41889e-05
8.51148e-05
8.60371e-05
8.69554e-05
8.78694e-05
8.87789e-05
8.96833e-05
9.05825e-05
9.1476e-05
9.23636e-05
9.32448e-05
9.41194e-05
9.4987e-05
9.58472e-05
9.66998e-05
9.75443e-05
9.83805e-05
9.9208e-05
0.000100026
0.000100836
0.000101635
0.000102424
0.000103203
0.000103972
0.000104729
0.000105475
0.000106209
0.000106932
0.000107642
0.000108339
0.000109024
0.000109696
0.000110354
0.000110998
0.000111629
0.000112245
0.000112846
0.000113433
0.000114005
0.000114561
0.000115102
0.000115627
0.000116135
0.000116628
0.000117104
0.000117563
0.000118006
0.000118431
0.000118839
0.00011923
0.000119603
0.000119958
0.000120295
0.000120614
0.000120915
0.000121197
0.000121461
0.000121707
0.000121933
0.000122141
0.00012233
0.0001225
0.000122651
0.000122783
0.000122895
0.000122989
0.000123063
0.000123118
0.000123154
0.00012317
0.000123168
0.000123146
0.000123105
0.000123045
0.000122966
0.000122867
0.000122749
0.000122613
0.000122458
0.000122283
0.000122091
0.000121879
0.000121649
0.000121401
0.000121135
0.00012085
0.000120548
0.000120228
0.00011989
0.000119535
0.000119163
0.000118773
0.000118367
0.000117944
0.000117505
0.000117049
0.000116578
0.00011609
0.000115587
0.000115069
0.000114536
0.000113988
0.000113425
0.000112848
0.000112258
0.000111653
0.000111035
0.000110403
0.000109759
0.000109102
0.000108433
0.000107752
0.000107059
0.000106355
0.00010564
0.000104914
0.000104177
0.00010343
0.000102674
0.000101907
0.000101132
0.000100348
9.95549e-05
9.87538e-05
9.79448e-05
9.71282e-05
9.63044e-05
9.54736e-05
9.46362e-05
9.37926e-05
9.2943e-05
9.20877e-05
9.12272e-05
9.03617e-05
8.94916e-05
8.86171e-05
8.77386e-05
8.68565e-05
8.5971e-05
8.50825e-05
8.41912e-05
8.32976e-05
8.2402e-05
8.15046e-05
8.06057e-05
7.97058e-05
7.8805e-05
7.79038e-05
7.70025e-05
7.61013e-05
7.52006e-05
7.43007e-05
7.3402e-05
7.25047e-05
7.16092e-05
7.07159e-05
6.98251e-05
6.8937e-05
6.80522e-05
6.7171e-05
6.62937e-05
6.54208e-05
6.45526e-05
6.36896e-05
6.28323e-05
6.19811e-05
6.11365e-05
6.02991e-05
5.94694e-05
5.86481e-05
5.78358e-05
5.70332e-05
5.62412e-05
5.54605e-05
5.46921e-05
5.39369e-05
5.31962e-05
5.24711e-05
5.17629e-05
5.10732e-05
5.04035e-05
4.97556e-05
4.91316e-05
4.85337e-05
4.79644e-05
4.74262e-05
4.69223e-05
4.64559e-05
4.60307e-05
4.56508e-05
4.53206e-05
4.50449e-05
4.48291e-05
4.46789e-05
4.46004e-05
2.37984e-09
7.63089e-09
1.34042e-08
1.9733e-08
2.66468e-08
3.41706e-08
4.2329e-08
5.11473e-08
6.06532e-08
7.08767e-08
8.18496e-08
9.3606e-08
1.06181e-07
1.19612e-07
1.33936e-07
1.49191e-07
1.65418e-07
1.82657e-07
2.00948e-07
2.20332e-07
2.40853e-07
2.62553e-07
2.85476e-07
3.09666e-07
3.35168e-07
3.62028e-07
3.90292e-07
4.20009e-07
4.51225e-07
4.8399e-07
5.18353e-07
5.54364e-07
5.92075e-07
6.31538e-07
6.72804e-07
7.15927e-07
7.60962e-07
8.07963e-07
8.56987e-07
9.08088e-07
9.61326e-07
1.01676e-06
1.07444e-06
1.13444e-06
1.19681e-06
1.26161e-06
1.32891e-06
1.39876e-06
1.47124e-06
1.54641e-06
1.62433e-06
1.70506e-06
1.78868e-06
1.87525e-06
1.96484e-06
2.05752e-06
2.15336e-06
2.25243e-06
2.3548e-06
2.46055e-06
2.56974e-06
2.68245e-06
2.79876e-06
2.91873e-06
3.04245e-06
3.17e-06
3.30145e-06
3.43687e-06
3.57636e-06
3.71998e-06
3.86782e-06
4.01995e-06
4.17647e-06
4.33745e-06
4.50297e-06
4.67313e-06
4.84799e-06
5.02766e-06
5.2122e-06
5.40171e-06
5.59628e-06
5.79598e-06
6.00092e-06
6.21116e-06
6.4268e-06
6.64794e-06
6.87464e-06
7.10701e-06
7.34514e-06
7.5891e-06
7.839e-06
8.0949e-06
8.35692e-06
8.62512e-06
8.89961e-06
9.18047e-06
9.46778e-06
9.76163e-06
1.00621e-05
1.03693e-05
1.06833e-05
1.10042e-05
1.13321e-05
1.1667e-05
1.2009e-05
1.23583e-05
1.27149e-05
1.30789e-05
1.34503e-05
1.38292e-05
1.42158e-05
1.461e-05
1.50121e-05
1.54219e-05
1.58397e-05
1.62654e-05
1.66992e-05
1.71411e-05
1.75911e-05
1.80494e-05
1.85159e-05
1.89908e-05
1.94741e-05
1.99659e-05
2.04661e-05
2.09749e-05
2.14923e-05
2.20183e-05
2.2553e-05
2.30963e-05
2.36484e-05
2.42092e-05
2.47789e-05
2.53573e-05
2.59445e-05
2.65406e-05
2.71455e-05
2.77593e-05
2.83819e-05
2.90134e-05
2.96537e-05
3.03028e-05
3.09607e-05
3.16274e-05
3.23029e-05
3.29872e-05
3.36801e-05
3.43817e-05
3.50919e-05
3.58107e-05
3.6538e-05
3.72738e-05
3.8018e-05
3.87705e-05
3.95312e-05
4.03001e-05
4.10771e-05
4.18621e-05
4.2655e-05
4.34557e-05
4.4264e-05
4.50799e-05
4.59033e-05
4.6734e-05
4.75719e-05
4.84168e-05
4.92687e-05
5.01273e-05
5.09925e-05
5.18641e-05
5.27421e-05
5.36261e-05
5.4516e-05
5.54117e-05
5.6313e-05
5.72195e-05
5.81312e-05
5.90479e-05
5.99693e-05
6.08952e-05
6.18253e-05
6.27595e-05
6.36975e-05
6.46391e-05
6.5584e-05
6.65319e-05
6.74827e-05
6.8436e-05
6.93915e-05
7.03491e-05
7.13084e-05
7.22691e-05
7.3231e-05
7.41937e-05
7.5157e-05
7.61205e-05
7.7084e-05
7.80471e-05
7.90096e-05
7.99711e-05
8.09313e-05
8.18898e-05
8.28464e-05
8.38007e-05
8.47524e-05
8.57012e-05
8.66466e-05
8.75885e-05
8.85264e-05
8.94599e-05
9.03889e-05
9.13128e-05
9.22314e-05
9.31443e-05
9.40512e-05
9.49517e-05
9.58454e-05
9.67321e-05
9.76114e-05
9.84829e-05
9.93462e-05
0.000100201
0.000101047
0.000101884
0.000102712
0.000103529
0.000104337
0.000105134
0.00010592
0.000106695
0.000107458
0.00010821
0.000108949
0.000109676
0.00011039
0.000111092
0.000111779
0.000112454
0.000113114
0.00011376
0.000114391
0.000115008
0.000115609
0.000116195
0.000116766
0.000117321
0.000117859
0.000118382
0.000118887
0.000119376
0.000119848
0.000120303
0.00012074
0.00012116
0.000121562
0.000121946
0.000122312
0.000122659
0.000122988
0.000123299
0.000123591
0.000123863
0.000124117
0.000124352
0.000124568
0.000124764
0.000124941
0.000125099
0.000125237
0.000125356
0.000125455
0.000125534
0.000125594
0.000125634
0.000125655
0.000125656
0.000125638
0.0001256
0.000125542
0.000125464
0.000125367
0.000125251
0.000125115
0.000124961
0.000124786
0.000124593
0.000124381
0.00012415
0.0001239
0.000123632
0.000123345
0.00012304
0.000122717
0.000122376
0.000122017
0.00012164
0.000121246
0.000120835
0.000120407
0.000119962
0.0001195
0.000119022
0.000118528
0.000118018
0.000117492
0.000116951
0.000116394
0.000115823
0.000115237
0.000114637
0.000114023
0.000113395
0.000112753
0.000112098
0.00011143
0.00011075
0.000110057
0.000109353
0.000108636
0.000107909
0.00010717
0.00010642
0.00010566
0.00010489
0.00010411
0.000103321
0.000102523
0.000101715
0.0001009
0.000100076
9.92441e-05
9.84049e-05
9.75586e-05
9.67056e-05
9.5846e-05
9.49803e-05
9.41089e-05
9.32319e-05
9.23498e-05
9.1463e-05
9.05716e-05
8.96761e-05
8.87768e-05
8.7874e-05
8.69681e-05
8.60593e-05
8.51481e-05
8.42347e-05
8.33195e-05
8.24027e-05
8.14848e-05
8.0566e-05
7.96466e-05
7.87271e-05
7.78076e-05
7.68886e-05
7.59703e-05
7.50532e-05
7.41375e-05
7.32236e-05
7.23118e-05
7.14024e-05
7.04959e-05
6.95926e-05
6.86928e-05
6.77971e-05
6.69056e-05
6.6019e-05
6.51376e-05
6.42618e-05
6.33922e-05
6.25293e-05
6.16736e-05
6.08257e-05
5.99861e-05
5.91557e-05
5.8335e-05
5.75249e-05
5.67262e-05
5.59399e-05
5.5167e-05
5.44085e-05
5.36657e-05
5.294e-05
5.22327e-05
5.15457e-05
5.08806e-05
5.02395e-05
4.96246e-05
4.90384e-05
4.84837e-05
4.79635e-05
4.74812e-05
4.70405e-05
4.66458e-05
4.63016e-05
4.60131e-05
4.57863e-05
4.56276e-05
4.55441e-05
2.34071e-09
7.50291e-09
1.31714e-08
1.93787e-08
2.61586e-08
3.3542e-08
4.15586e-08
5.02382e-08
5.96112e-08
6.97092e-08
8.05654e-08
9.22139e-08
1.0469e-07
1.18031e-07
1.32273e-07
1.47455e-07
1.63616e-07
1.80797e-07
1.99037e-07
2.18379e-07
2.38865e-07
2.60538e-07
2.83441e-07
3.0762e-07
3.33121e-07
3.59989e-07
3.88271e-07
4.18016e-07
4.49272e-07
4.82088e-07
5.16515e-07
5.52604e-07
5.90407e-07
6.29977e-07
6.71366e-07
7.14629e-07
7.59822e-07
8.06999e-07
8.56218e-07
9.07536e-07
9.61012e-07
1.0167e-06
1.07467e-06
1.13498e-06
1.19768e-06
1.26284e-06
1.33053e-06
1.40081e-06
1.47373e-06
1.54938e-06
1.6278e-06
1.70908e-06
1.79328e-06
1.88047e-06
1.97071e-06
2.06408e-06
2.16065e-06
2.26049e-06
2.36367e-06
2.47027e-06
2.58036e-06
2.69401e-06
2.81131e-06
2.93233e-06
3.05714e-06
3.18583e-06
3.31847e-06
3.45514e-06
3.59592e-06
3.7409e-06
3.89015e-06
4.04376e-06
4.20182e-06
4.36439e-06
4.53158e-06
4.70346e-06
4.88011e-06
5.06163e-06
5.24811e-06
5.43962e-06
5.63625e-06
5.8381e-06
6.04525e-06
6.25779e-06
6.47581e-06
6.69939e-06
6.92863e-06
7.16362e-06
7.40445e-06
7.6512e-06
7.90396e-06
8.16283e-06
8.4279e-06
8.69925e-06
8.97698e-06
9.26117e-06
9.55191e-06
9.84929e-06
1.01534e-05
1.04643e-05
1.07822e-05
1.1107e-05
1.14389e-05
1.1778e-05
1.21243e-05
1.24779e-05
1.2839e-05
1.32075e-05
1.35837e-05
1.39674e-05
1.4359e-05
1.47583e-05
1.51655e-05
1.55806e-05
1.60038e-05
1.64351e-05
1.68746e-05
1.73223e-05
1.77783e-05
1.82426e-05
1.87154e-05
1.91967e-05
1.96864e-05
2.01848e-05
2.06918e-05
2.12075e-05
2.17319e-05
2.22651e-05
2.2807e-05
2.33579e-05
2.39176e-05
2.44862e-05
2.50637e-05
2.56502e-05
2.62456e-05
2.685e-05
2.74634e-05
2.80859e-05
2.87173e-05
2.93577e-05
3.00071e-05
3.06655e-05
3.13328e-05
3.20091e-05
3.26943e-05
3.33884e-05
3.40914e-05
3.48032e-05
3.55238e-05
3.62531e-05
3.6991e-05
3.77376e-05
3.84928e-05
3.92564e-05
4.00284e-05
4.08087e-05
4.15973e-05
4.2394e-05
4.31988e-05
4.40115e-05
4.48321e-05
4.56604e-05
4.64962e-05
4.73396e-05
4.81902e-05
4.90481e-05
4.9913e-05
5.07849e-05
5.16634e-05
5.25486e-05
5.34401e-05
5.43379e-05
5.52418e-05
5.61515e-05
5.70669e-05
5.79878e-05
5.89139e-05
5.98451e-05
6.07811e-05
6.17218e-05
6.26668e-05
6.3616e-05
6.45691e-05
6.55259e-05
6.64861e-05
6.74495e-05
6.84157e-05
6.93846e-05
7.03559e-05
7.13292e-05
7.23043e-05
7.3281e-05
7.42588e-05
7.52376e-05
7.6217e-05
7.71967e-05
7.81764e-05
7.91559e-05
8.01347e-05
8.11125e-05
8.20891e-05
8.30641e-05
8.40372e-05
8.5008e-05
8.59762e-05
8.69414e-05
8.79034e-05
8.88618e-05
8.98162e-05
9.07663e-05
9.17117e-05
9.26521e-05
9.35871e-05
9.45164e-05
9.54397e-05
9.63565e-05
9.72665e-05
9.81694e-05
9.90648e-05
9.99524e-05
0.000100832
0.000101703
0.000102565
0.000103417
0.00010426
0.000105093
0.000105916
0.000106729
0.00010753
0.00010832
0.000109098
0.000109865
0.000110619
0.00011136
0.000112089
0.000112804
0.000113506
0.000114194
0.000114868
0.000115527
0.000116172
0.000116802
0.000117416
0.000118015
0.000118598
0.000119165
0.000119716
0.00012025
0.000120767
0.000121267
0.00012175
0.000122216
0.000122664
0.000123094
0.000123506
0.000123899
0.000124274
0.000124631
0.000124969
0.000125288
0.000125588
0.000125869
0.000126131
0.000126373
0.000126596
0.000126799
0.000126983
0.000127147
0.000127291
0.000127415
0.000127519
0.000127604
0.000127668
0.000127712
0.000127737
0.000127741
0.000127727
0.000127692
0.000127636
0.000127561
0.000127466
0.000127352
0.000127217
0.000127063
0.00012689
0.000126697
0.000126485
0.000126253
0.000126003
0.000125733
0.000125445
0.000125138
0.000124813
0.00012447
0.000124108
0.000123728
0.000123331
0.000122916
0.000122483
0.000122034
0.000121568
0.000121085
0.000120585
0.000120069
0.000119538
0.00011899
0.000118427
0.000117849
0.000117256
0.000116649
0.000116027
0.000115391
0.000114741
0.000114078
0.000113401
0.000112712
0.00011201
0.000111296
0.000110569
0.000109832
0.000109083
0.000108322
0.000107552
0.000106771
0.00010598
0.000105179
0.000104369
0.00010355
0.000102722
0.000101886
0.000101042
0.00010019
9.93308e-05
9.84647e-05
9.7592e-05
9.67131e-05
9.58282e-05
9.49376e-05
9.40418e-05
9.3141e-05
9.22356e-05
9.1326e-05
9.04124e-05
8.94952e-05
8.85748e-05
8.76514e-05
8.67255e-05
8.57973e-05
8.48672e-05
8.39354e-05
8.30024e-05
8.20685e-05
8.11339e-05
8.01991e-05
7.92644e-05
7.833e-05
7.73963e-05
7.64637e-05
7.55325e-05
7.46031e-05
7.36757e-05
7.27508e-05
7.18287e-05
7.09098e-05
6.99944e-05
6.9083e-05
6.81759e-05
6.72737e-05
6.63766e-05
6.54853e-05
6.46001e-05
6.37216e-05
6.28503e-05
6.19869e-05
6.11318e-05
6.02859e-05
5.94498e-05
5.86243e-05
5.78102e-05
5.70085e-05
5.62203e-05
5.54465e-05
5.46885e-05
5.39475e-05
5.32251e-05
5.25229e-05
5.18428e-05
5.11866e-05
5.05568e-05
4.99558e-05
4.93864e-05
4.88516e-05
4.83549e-05
4.79003e-05
4.74921e-05
4.71352e-05
4.68351e-05
4.65981e-05
4.64315e-05
4.63434e-05
2.30793e-09
7.39564e-09
1.29765e-08
1.90812e-08
2.5745e-08
3.30028e-08
4.0889e-08
4.94373e-08
5.86816e-08
6.86558e-08
7.93945e-08
9.09328e-08
1.03306e-07
1.16551e-07
1.30705e-07
1.45806e-07
1.61892e-07
1.79004e-07
1.97182e-07
2.16467e-07
2.36902e-07
2.58529e-07
2.81394e-07
3.0554e-07
3.31014e-07
3.57862e-07
3.86131e-07
4.15871e-07
4.4713e-07
4.79959e-07
5.14407e-07
5.50527e-07
5.88372e-07
6.27994e-07
6.69447e-07
7.12787e-07
7.5807e-07
8.05351e-07
8.54689e-07
9.06141e-07
9.59767e-07
1.01563e-06
1.07378e-06
1.13429e-06
1.19721e-06
1.26262e-06
1.33057e-06
1.40113e-06
1.47437e-06
1.55034e-06
1.62913e-06
1.71079e-06
1.7954e-06
1.88302e-06
1.97373e-06
2.06759e-06
2.16469e-06
2.26508e-06
2.36885e-06
2.47607e-06
2.58682e-06
2.70116e-06
2.81919e-06
2.94097e-06
3.06658e-06
3.19611e-06
3.32963e-06
3.46723e-06