/*--------------------------------*- C++ -*----------------------------------*\
  =========                 |
  \\      /  F ield         | OpenFOAM: The Open Source CFD Toolbox
   \\    /   O peration     | Website:  https://openfoam.org
    \\  /    A nd           | Version:  dev
     \\/     M anipulation  |
\*---------------------------------------------------------------------------*/
FoamFile
{
    format      ascii;
    class       volScalarField;
    location    "0.28";
    object      beta;
}
// * * * * * * * * * * * * * * * * * * * * * * * * * * * * * * * * * * * * * //

dimensions      [0 0 0 0 0 0 0];

internalField   uniform 0;

boundaryField
{
    frontAndBack
    {
        type            empty;
    }
    inlet
    {
        type            calculated;
        value           uniform 0;
    }
    outlet
    {
        type            calculated;
        value           uniform 0;
    }
    substrate
    {
        type            calculated;
        value           nonuniform List<scalar> 
400
(
0.00276608
0.00290564
0.00300804
0.00310162
0.00319056
0.0032752
0.00335654
0.00343548
0.00351264
0.00358847
0.0036633
0.00373741
0.00381099
0.00388419
0.00395713
0.00402989
0.00410255
0.00417513
0.00424767
0.00432018
0.00439267
0.00446514
0.00453758
0.00460997
0.0046823
0.00475454
0.00482669
0.00489871
0.00497058
0.00504228
0.00511378
0.00518506
0.00525609
0.00532684
0.0053973
0.00546744
0.00553723
0.00560665
0.00567569
0.0057443
0.00581249
0.00588022
0.00594747
0.00601423
0.00608048
0.0061462
0.00621137
0.00627598
0.00634001
0.00640344
0.00646627
0.00652848
0.00659006
0.006651
0.00671128
0.00677089
0.00682984
0.0068881
0.00694567
0.00700255
0.00705873
0.00711419
0.00716895
0.00722299
0.00727631
0.0073289
0.00738077
0.00743191
0.00748232
0.00753201
0.00758096
0.00762919
0.00767668
0.00772345
0.0077695
0.00781482
0.00785942
0.00790331
0.00794648
0.00798894
0.0080307
0.00807176
0.00811212
0.00815179
0.00819077
0.00822908
0.00826671
0.00830368
0.00833998
0.00837563
0.00841062
0.00844498
0.00847871
0.0085118
0.00854428
0.00857615
0.00860741
0.00863808
0.00866815
0.00869764
0.00872657
0.00875492
0.00878272
0.00880997
0.00883667
0.00886285
0.00888849
0.00891362
0.00893825
0.00896237
0.00898599
0.00900913
0.0090318
0.00905399
0.00907572
0.009097
0.00911784
0.00913823
0.0091582
0.00917774
0.00919686
0.00921558
0.0092339
0.00925182
0.00926936
0.00928652
0.00930331
0.00931973
0.0093358
0.00935151
0.00936688
0.00938192
0.00939662
0.00941099
0.00942505
0.0094388
0.00945224
0.00946539
0.00947823
0.0094908
0.00950308
0.00951508
0.00952681
0.00953828
0.00954949
0.00956045
0.00957115
0.00958162
0.00959184
0.00960183
0.00961159
0.00962113
0.00963045
0.00963956
0.00964846
0.00965715
0.00966564
0.00967393
0.00968203
0.00968994
0.00969767
0.00970522
0.0097126
0.0097198
0.00972683
0.0097337
0.0097404
0.00974695
0.00975334
0.00975959
0.00976568
0.00977163
0.00977744
0.00978312
0.00978865
0.00979406
0.00979933
0.00980449
0.00980951
0.00981442
0.00981921
0.00982388
0.00982844
0.0098329
0.00983724
0.00984148
0.00984562
0.00984965
0.00985359
0.00985743
0.00986118
0.00986484
0.0098684
0.00987188
0.00987528
0.00987859
0.00988182
0.00988497
0.00988804
0.00989103
0.00989396
0.0098968
0.00989958
0.00990229
0.00990493
0.00990751
0.00991002
0.00991246
0.00991485
0.00991717
0.00991944
0.00992165
0.0099238
0.0099259
0.00992795
0.00992994
0.00993188
0.00993377
0.00993562
0.00993741
0.00993916
0.00994086
0.00994253
0.00994414
0.00994572
0.00994725
0.00994875
0.0099502
0.00995162
0.009953
0.00995434
0.00995565
0.00995692
0.00995816
0.00995937
0.00996054
0.00996168
0.00996279
0.00996388
0.00996493
0.00996595
0.00996695
0.00996792
0.00996887
0.00996978
0.00997068
0.00997155
0.00997239
0.00997321
0.00997401
0.00997479
0.00997554
0.00997628
0.00997699
0.00997769
0.00997836
0.00997902
0.00997965
0.00998027
0.00998088
0.00998146
0.00998203
0.00998258
0.00998312
0.00998364
0.00998415
0.00998464
0.00998511
0.00998558
0.00998603
0.00998647
0.00998689
0.0099873
0.0099877
0.00998809
0.00998847
0.00998883
0.00998919
0.00998953
0.00998987
0.00999019
0.00999051
0.00999081
0.00999111
0.0099914
0.00999168
0.00999195
0.00999221
0.00999246
0.00999271
0.00999295
0.00999318
0.0099934
0.00999362
0.00999383
0.00999404
0.00999423
0.00999443
0.00999461
0.00999479
0.00999497
0.00999514
0.0099953
0.00999546
0.00999561
0.00999576
0.0099959
0.00999604
0.00999618
0.00999631
0.00999644
0.00999656
0.00999668
0.00999679
0.0099969
0.00999701
0.00999711
0.00999721
0.00999731
0.00999741
0.0099975
0.00999758
0.00999767
0.00999775
0.00999783
0.00999791
0.00999798
0.00999805
0.00999812
0.00999819
0.00999826
0.00999832
0.00999838
0.00999844
0.00999849
0.00999855
0.0099986
0.00999865
0.0099987
0.00999875
0.00999879
0.00999884
0.00999888
0.00999892
0.00999896
0.009999
0.00999904
0.00999907
0.00999911
0.00999914
0.00999917
0.0099992
0.00999923
0.00999926
0.00999929
0.00999932
0.00999934
0.00999937
0.00999939
0.00999942
0.00999944
0.00999946
0.00999948
0.0099995
0.00999952
0.00999954
0.00999956
0.00999957
0.00999959
0.00999961
0.00999962
0.00999964
0.00999965
0.00999966
0.00999968
0.00999969
0.0099997
0.00999971
0.00999972
0.00999973
0.00999975
0.00999975
0.00999976
0.00999977
0.00999978
0.00999979
0.0099998
0.0099998
0.00999981
0.00999982
0.00999982
0.00999983
0.00999983
0.00999984
0.00999984
0.00999985
0.00999985
0.00999985
0.00999985
0.00999985
)
;
    }
    Wall
    {
        type            calculated;
        value           nonuniform List<scalar> 
400
(
0.00276608
0.00290565
0.00300803
0.00310161
0.00319055
0.00327521
0.00335656
0.0034355
0.00351266
0.00358849
0.00366333
0.00373743
0.00381101
0.00388421
0.00395715
0.00402992
0.00410257
0.00417515
0.00424769
0.0043202
0.00439269
0.00446516
0.00453759
0.00460998
0.0046823
0.00475455
0.00482669
0.00489871
0.00497058
0.00504228
0.00511378
0.00518505
0.00525608
0.00532684
0.00539729
0.00546743
0.00553722
0.00560664
0.00567567
0.00574429
0.00581248
0.00588021
0.00594746
0.00601422
0.00608047
0.00614618
0.00621135
0.00627596
0.00633999
0.00640343
0.00646626
0.00652847
0.00659004
0.00665098
0.00671126
0.00677087
0.00682982
0.00688808
0.00694565
0.00700253
0.00705871
0.00711417
0.00716893
0.00722297
0.00727629
0.00732888
0.00738075
0.00743189
0.0074823
0.00753199
0.00758094
0.00762916
0.00767666
0.00772343
0.00776948
0.0078148
0.0078594
0.00790329
0.00794646
0.00798892
0.00803068
0.00807174
0.0081121
0.00815177
0.00819076
0.00822906
0.00826669
0.00830366
0.00833996
0.00837561
0.00841061
0.00844497
0.00847869
0.00851179
0.00854427
0.00857613
0.0086074
0.00863806
0.00866814
0.00869763
0.00872655
0.00875491
0.00878271
0.00880995
0.00883666
0.00886283
0.00888848
0.00891361
0.00893823
0.00896235
0.00898598
0.00900912
0.00903179
0.00905398
0.00907571
0.00909699
0.00911783
0.00913822
0.00915819
0.00917773
0.00919685
0.00921557
0.00923389
0.00925181
0.00926935
0.00928651
0.0093033
0.00931972
0.00933579
0.0093515
0.00936687
0.00938191
0.00939661
0.00941099
0.00942505
0.00943879
0.00945224
0.00946538
0.00947823
0.00949079
0.00950307
0.00951507
0.00952681
0.00953828
0.00954948
0.00956044
0.00957115
0.00958161
0.00959183
0.00960183
0.00961159
0.00962113
0.00963045
0.00963955
0.00964845
0.00965714
0.00966563
0.00967393
0.00968203
0.00968994
0.00969767
0.00970522
0.00971259
0.00971979
0.00972682
0.00973369
0.0097404
0.00974695
0.00975334
0.00975958
0.00976568
0.00977163
0.00977744
0.00978311
0.00978865
0.00979406
0.00979933
0.00980448
0.00980951
0.00981442
0.00981921
0.00982388
0.00982844
0.00983289
0.00983724
0.00984148
0.00984561
0.00984965
0.00985359
0.00985743
0.00986118
0.00986483
0.0098684
0.00987188
0.00987528
0.00987859
0.00988182
0.00988496
0.00988804
0.00989103
0.00989395
0.0098968
0.00989958
0.00990229
0.00990493
0.0099075
0.00991001
0.00991246
0.00991485
0.00991717
0.00991944
0.00992165
0.0099238
0.0099259
0.00992794
0.00992994
0.00993188
0.00993377
0.00993561
0.00993741
0.00993916
0.00994086
0.00994252
0.00994414
0.00994572
0.00994725
0.00994874
0.0099502
0.00995162
0.009953
0.00995434
0.00995565
0.00995692
0.00995816
0.00995936
0.00996054
0.00996168
0.00996279
0.00996388
0.00996493
0.00996595
0.00996695
0.00996792
0.00996887
0.00996978
0.00997068
0.00997155
0.00997239
0.00997321
0.00997401
0.00997479
0.00997554
0.00997628
0.00997699
0.00997769
0.00997836
0.00997902
0.00997965
0.00998027
0.00998088
0.00998146
0.00998203
0.00998258
0.00998312
0.00998364
0.00998415
0.00998464
0.00998511
0.00998558
0.00998603
0.00998647
0.00998689
0.0099873
0.0099877
0.00998809
0.00998847
0.00998883
0.00998919
0.00998953
0.00998987
0.00999019
0.00999051
0.00999081
0.00999111
0.0099914
0.00999168
0.00999195
0.00999221
0.00999246
0.00999271
0.00999295
0.00999318
0.0099934
0.00999362
0.00999383
0.00999404
0.00999423
0.00999443
0.00999461
0.00999479
0.00999497
0.00999514
0.0099953
0.00999546
0.00999561
0.00999576
0.0099959
0.00999604
0.00999618
0.00999631
0.00999644
0.00999656
0.00999668
0.00999679
0.0099969
0.00999701
0.00999711
0.00999721
0.00999731
0.00999741
0.0099975
0.00999758
0.00999767
0.00999775
0.00999783
0.00999791
0.00999798
0.00999805
0.00999812
0.00999819
0.00999826
0.00999832
0.00999838
0.00999844
0.00999849
0.00999855
0.0099986
0.00999865
0.0099987
0.00999875
0.00999879
0.00999884
0.00999888
0.00999892
0.00999896
0.009999
0.00999904
0.00999907
0.00999911
0.00999914
0.00999917
0.0099992
0.00999923
0.00999926
0.00999929
0.00999932
0.00999934
0.00999937
0.00999939
0.00999942
0.00999944
0.00999946
0.00999948
0.0099995
0.00999952
0.00999954
0.00999956
0.00999957
0.00999959
0.00999961
0.00999962
0.00999964
0.00999965
0.00999966
0.00999968
0.00999969
0.0099997
0.00999971
0.00999972
0.00999973
0.00999975
0.00999975
0.00999976
0.00999977
0.00999978
0.00999979
0.0099998
0.0099998
0.00999981
0.00999982
0.00999982
0.00999983
0.00999983
0.00999984
0.00999984
0.00999985
0.00999985
0.00999985
0.00999985
0.00999985
)
;
    }
}


// ************************************************************************* //
