/*--------------------------------*- C++ -*----------------------------------*\
  =========                 |
  \\      /  F ield         | OpenFOAM: The Open Source CFD Toolbox
   \\    /   O peration     | Website:  https://openfoam.org
    \\  /    A nd           | Version:  dev
     \\/     M anipulation  |
\*---------------------------------------------------------------------------*/
FoamFile
{
    format      ascii;
    class       volScalarField;
    location    "0.28";
    object      Exp1;
}
// * * * * * * * * * * * * * * * * * * * * * * * * * * * * * * * * * * * * * //

dimensions      [0 0 0 0 0 0 0];

internalField   uniform 0;

boundaryField
{
    frontAndBack
    {
        type            empty;
    }
    inlet
    {
        type            calculated;
        value           uniform 0;
    }
    outlet
    {
        type            calculated;
        value           uniform 0;
    }
    substrate
    {
        type            calculated;
        value           nonuniform List<scalar> 
400
(
8.53164e-08
2.71709e-07
4.76686e-07
6.99315e-07
9.39662e-07
1.19847e-06
1.47646e-06
1.77437e-06
2.09303e-06
2.43333e-06
2.79622e-06
3.18269e-06
3.59375e-06
4.03042e-06
4.49374e-06
4.98474e-06
5.50446e-06
6.05393e-06
6.63419e-06
7.24625e-06
7.89113e-06
8.56983e-06
9.28335e-06
1.00327e-05
1.08188e-05
1.16426e-05
1.25052e-05
1.34074e-05
1.43502e-05
1.53345e-05
1.63613e-05
1.74313e-05
1.85456e-05
1.9705e-05
2.09103e-05
2.21624e-05
2.34621e-05
2.48102e-05
2.62074e-05
2.76546e-05
2.91524e-05
3.07016e-05
3.23029e-05
3.39569e-05
3.56643e-05
3.74256e-05
3.92415e-05
4.11125e-05
4.3039e-05
4.50216e-05
4.70608e-05
4.91569e-05
5.13103e-05
5.35213e-05
5.57903e-05
5.81175e-05
6.05031e-05
6.29473e-05
6.54503e-05
6.80121e-05
7.06328e-05
7.33123e-05
7.60507e-05
7.88478e-05
8.17036e-05
8.46177e-05
8.759e-05
9.06202e-05
9.3708e-05
9.68529e-05
0.000100054
0.000103312
0.000106626
0.000109994
0.000113417
0.000116894
0.000120423
0.000124004
0.000127637
0.00013132
0.000135052
0.000138832
0.000142659
0.000146532
0.000150449
0.00015441
0.000158413
0.000162457
0.000166539
0.00017066
0.000174816
0.000179007
0.00018323
0.000187485
0.000191768
0.000196079
0.000200416
0.000204776
0.000209158
0.00021356
0.000217979
0.000222413
0.000226861
0.00023132
0.000235787
0.000240261
0.00024474
0.00024922
0.0002537
0.000258177
0.000262649
0.000267113
0.000271567
0.000276008
0.000280434
0.000284842
0.00028923
0.000293595
0.000297935
0.000302246
0.000306528
0.000310776
0.000314988
0.000319162
0.000323295
0.000327385
0.000331429
0.000335425
0.00033937
0.000343261
0.000347097
0.000350874
0.00035459
0.000358244
0.000361832
0.000365352
0.000368803
0.000372181
0.000375485
0.000378713
0.000381862
0.000384931
0.000387917
0.000390819
0.000393634
0.000396362
0.000399
0.000401546
0.000403999
0.000406358
0.000408621
0.000410787
0.000412854
0.00041482
0.000416686
0.00041845
0.000420111
0.000421667
0.000423119
0.000424465
0.000425705
0.000426837
0.000427862
0.00042878
0.000429589
0.00043029
0.000430882
0.000431365
0.00043174
0.000432006
0.000432163
0.000432212
0.000432154
0.000431988
0.000431715
0.000431335
0.000430849
0.000430257
0.000429561
0.000428762
0.000427859
0.000426856
0.000425751
0.000424547
0.000423245
0.000421846
0.000420351
0.000418763
0.000417081
0.000415308
0.000413446
0.000411495
0.000409459
0.000407337
0.000405133
0.000402847
0.000400483
0.000398041
0.000395523
0.000392932
0.00039027
0.000387538
0.000384739
0.000381874
0.000378947
0.000375958
0.00037291
0.000369805
0.000366646
0.000363434
0.000360172
0.000356862
0.000353505
0.000350105
0.000346663
0.000343182
0.000339664
0.000336111
0.000332524
0.000328907
0.000325262
0.00032159
0.000317893
0.000314174
0.000310436
0.000306678
0.000302905
0.000299118
0.000295318
0.000291508
0.00028769
0.000283866
0.000280037
0.000276205
0.000272372
0.00026854
0.00026471
0.000260885
0.000257066
0.000253254
0.000249451
0.000245658
0.000241878
0.000238111
0.000234359
0.000230623
0.000226905
0.000223206
0.000219527
0.00021587
0.000212234
0.000208623
0.000205036
0.000201475
0.000197941
0.000194434
0.000190956
0.000187508
0.000184089
0.000180702
0.000177347
0.000174024
0.000170735
0.000167479
0.000164258
0.000161072
0.000157921
0.000154806
0.000151728
0.000148687
0.000145683
0.000142717
0.000139788
0.000136898
0.000134046
0.000131232
0.000128458
0.000125722
0.000123026
0.000120368
0.00011775
0.000115172
0.000112632
0.000110132
0.000107671
0.000105249
0.000102867
0.000100523
9.82187e-05
9.59528e-05
9.37255e-05
9.15366e-05
8.93859e-05
8.72732e-05
8.51983e-05
8.31609e-05
8.11607e-05
7.91976e-05
7.72711e-05
7.53809e-05
7.35268e-05
7.17085e-05
6.99255e-05
6.81776e-05
6.64644e-05
6.47854e-05
6.31404e-05
6.1529e-05
5.99507e-05
5.84051e-05
5.68919e-05
5.54107e-05
5.3961e-05
5.25423e-05
5.11544e-05
4.97968e-05
4.84689e-05
4.71705e-05
4.5901e-05
4.466e-05
4.34472e-05
4.22619e-05
4.11039e-05
3.99727e-05
3.88678e-05
3.77887e-05
3.67351e-05
3.57066e-05
3.47026e-05
3.37227e-05
3.27666e-05
3.18337e-05
3.09237e-05
3.00361e-05
2.91706e-05
2.83266e-05
2.75038e-05
2.67017e-05
2.592e-05
2.51582e-05
2.4416e-05
2.36929e-05
2.29886e-05
2.23026e-05
2.16346e-05
2.09843e-05
2.03511e-05
1.97348e-05
1.9135e-05
1.85514e-05
1.79835e-05
1.74311e-05
1.68937e-05
1.63711e-05
1.5863e-05
1.53689e-05
1.48886e-05
1.44217e-05
1.39681e-05
1.35272e-05
1.30989e-05
1.26829e-05
1.22789e-05
1.18866e-05
1.15057e-05
1.1136e-05
1.07772e-05
1.04291e-05
1.00915e-05
9.76404e-06
9.44662e-06
9.139e-06
8.84098e-06
8.55238e-06
8.27303e-06
8.00278e-06
7.74148e-06
7.48901e-06
7.24527e-06
7.01016e-06
6.78364e-06
6.56567e-06
6.35623e-06
6.15535e-06
5.9631e-06
5.77958e-06
5.60491e-06
5.43931e-06
5.28302e-06
5.13634e-06
4.99966e-06
4.87341e-06
4.75813e-06
4.65443e-06
4.563e-06
4.48461e-06
4.42014e-06
4.37048e-06
4.33656e-06
4.31925e-06
)
;
    }
    Wall
    {
        type            calculated;
        value           nonuniform List<scalar> 
400
(
8.53149e-08
2.71704e-07
4.76677e-07
6.99301e-07
9.39643e-07
1.19845e-06
1.47643e-06
1.77433e-06
2.09297e-06
2.43326e-06
2.79614e-06
3.1826e-06
3.59364e-06
4.03029e-06
4.49358e-06
4.98456e-06
5.50426e-06
6.05371e-06
6.63395e-06
7.24598e-06
7.89083e-06
8.56951e-06
9.283e-06
1.00323e-05
1.08184e-05
1.16422e-05
1.25047e-05
1.34069e-05
1.43497e-05
1.5334e-05
1.63607e-05
1.74307e-05
1.8545e-05
1.97044e-05
2.09096e-05
2.21617e-05
2.34614e-05
2.48094e-05
2.62066e-05
2.76538e-05
2.91516e-05
3.07007e-05
3.2302e-05
3.3956e-05
3.56633e-05
3.74246e-05
3.92404e-05
4.11113e-05
4.30378e-05
4.50204e-05
4.70595e-05
4.91555e-05
5.13089e-05
5.35199e-05
5.57888e-05
5.8116e-05
6.05016e-05
6.29457e-05
6.54486e-05
6.80104e-05
7.0631e-05
7.33105e-05
7.60489e-05
7.8846e-05
8.17016e-05
8.46157e-05
8.7588e-05
9.06182e-05
9.37059e-05
9.68507e-05
0.000100052
0.00010331
0.000106623
0.000109992
0.000113415
0.000116891
0.00012042
0.000124002
0.000127634
0.000131317
0.000135049
0.000138829
0.000142656
0.000146529
0.000150446
0.000154407
0.00015841
0.000162454
0.000166536
0.000170656
0.000174813
0.000179003
0.000183227
0.000187481
0.000191765
0.000196076
0.000200412
0.000204773
0.000209154
0.000213556
0.000217975
0.000222409
0.000226857
0.000231315
0.000235783
0.000240257
0.000244736
0.000249216
0.000253696
0.000258173
0.000262645
0.000267109
0.000271562
0.000276003
0.000280429
0.000284838
0.000289225
0.000293591
0.00029793
0.000302242
0.000306523
0.000310771
0.000314983
0.000319157
0.000323291
0.000327381
0.000331425
0.00033542
0.000339365
0.000343256
0.000347092
0.000350869
0.000354586
0.000358239
0.000361827
0.000365348
0.000368798
0.000372177
0.000375481
0.000378708
0.000381858
0.000384926
0.000387913
0.000390814
0.00039363
0.000396357
0.000398995
0.000401542
0.000403995
0.000406354
0.000408617
0.000410782
0.000412849
0.000414816
0.000416682
0.000418446
0.000420106
0.000421663
0.000423115
0.000424461
0.0004257
0.000426833
0.000427859
0.000428776
0.000429585
0.000430286
0.000430878
0.000431361
0.000431736
0.000432002
0.000432159
0.000432209
0.00043215
0.000431985
0.000431711
0.000431331
0.000430845
0.000430254
0.000429558
0.000428758
0.000427856
0.000426852
0.000425748
0.000424544
0.000423242
0.000421843
0.000420349
0.00041876
0.000417078
0.000415306
0.000413443
0.000411493
0.000409456
0.000407335
0.00040513
0.000402845
0.00040048
0.000398038
0.000395521
0.00039293
0.000390268
0.000387536
0.000384737
0.000381873
0.000378945
0.000375956
0.000372909
0.000369804
0.000366645
0.000363433
0.000360171
0.00035686
0.000353504
0.000350104
0.000346662
0.000343181
0.000339663
0.00033611
0.000332524
0.000328907
0.000325261
0.000321589
0.000317893
0.000314174
0.000310435
0.000306678
0.000302905
0.000299117
0.000295318
0.000291508
0.00028769
0.000283866
0.000280036
0.000276205
0.000272372
0.00026854
0.00026471
0.000260885
0.000257066
0.000253254
0.000249451
0.000245658
0.000241878
0.000238111
0.000234359
0.000230624
0.000226906
0.000223207
0.000219528
0.00021587
0.000212235
0.000208623
0.000205037
0.000201476
0.000197941
0.000194435
0.000190957
0.000187508
0.00018409
0.000180703
0.000177347
0.000174025
0.000170735
0.00016748
0.000164259
0.000161072
0.000157922
0.000154807
0.000151729
0.000148688
0.000145684
0.000142717
0.000139789
0.000136898
0.000134046
0.000131233
0.000128458
0.000125723
0.000123026
0.000120369
0.000117751
0.000115172
0.000112633
0.000110133
0.000107672
0.00010525
0.000102867
0.000100524
9.82193e-05
9.59534e-05
9.37261e-05
9.15372e-05
8.93865e-05
8.72738e-05
8.51989e-05
8.31615e-05
8.11613e-05
7.91982e-05
7.72716e-05
7.53815e-05
7.35274e-05
7.17091e-05
6.99261e-05
6.81782e-05
6.64649e-05
6.4786e-05
6.3141e-05
6.15295e-05
5.99512e-05
5.84056e-05
5.68924e-05
5.54112e-05
5.39615e-05
5.25429e-05
5.11549e-05
4.97973e-05
4.84694e-05
4.7171e-05
4.59015e-05
4.46605e-05
4.34476e-05
4.22624e-05
4.11044e-05
3.99731e-05
3.88682e-05
3.77891e-05
3.67356e-05
3.5707e-05
3.4703e-05
3.37231e-05
3.2767e-05
3.18341e-05
3.09241e-05
3.00365e-05
2.91709e-05
2.83269e-05
2.75041e-05
2.6702e-05
2.59203e-05
2.51585e-05
2.44163e-05
2.36932e-05
2.29889e-05
2.23029e-05
2.16349e-05
2.09845e-05
2.03514e-05
1.97351e-05
1.91353e-05
1.85516e-05
1.79838e-05
1.74313e-05
1.6894e-05
1.63714e-05
1.58632e-05
1.53691e-05
1.48888e-05
1.44219e-05
1.39683e-05
1.35274e-05
1.30991e-05
1.26831e-05
1.22791e-05
1.18867e-05
1.15059e-05
1.11361e-05
1.07774e-05
1.04293e-05
1.00916e-05
9.7642e-06
9.44677e-06
9.13915e-06
8.84112e-06
8.55252e-06
8.27317e-06
8.00291e-06
7.74161e-06
7.48913e-06
7.24538e-06
7.01028e-06
6.78375e-06
6.56578e-06
6.35634e-06
6.15546e-06
5.96321e-06
5.77968e-06
5.60501e-06
5.43941e-06
5.28312e-06
5.13644e-06
4.99975e-06
4.8735e-06
4.75822e-06
4.65452e-06
4.56309e-06
4.4847e-06
4.42023e-06
4.37056e-06
4.33664e-06
4.31934e-06
)
;
    }
}


// ************************************************************************* //
