/*--------------------------------*- C++ -*----------------------------------*\
  =========                 |
  \\      /  F ield         | OpenFOAM: The Open Source CFD Toolbox
   \\    /   O peration     | Website:  https://openfoam.org
    \\  /    A nd           | Version:  dev
     \\/     M anipulation  |
\*---------------------------------------------------------------------------*/
FoamFile
{
    format      ascii;
    class       volScalarField;
    location    "0.28";
    object      growth;
}
// * * * * * * * * * * * * * * * * * * * * * * * * * * * * * * * * * * * * * //

dimensions      [0 0 0 0 0 0 0];

internalField   uniform 0;

boundaryField
{
    frontAndBack
    {
        type            empty;
    }
    inlet
    {
        type            calculated;
        value           uniform 0;
    }
    outlet
    {
        type            calculated;
        value           uniform 0;
    }
    substrate
    {
        type            calculated;
        value           nonuniform List<scalar> 
400
(
0.723392
0.709436
0.699196
0.689838
0.680944
0.67248
0.664346
0.656452
0.648736
0.641153
0.63367
0.626259
0.618901
0.611581
0.604287
0.597011
0.589745
0.582487
0.575233
0.567982
0.560733
0.553486
0.546242
0.539003
0.53177
0.524546
0.517331
0.510129
0.502942
0.495772
0.488622
0.481494
0.474391
0.467316
0.46027
0.453256
0.446277
0.439335
0.432431
0.42557
0.418751
0.411978
0.405253
0.398577
0.391952
0.38538
0.378863
0.372402
0.365999
0.359656
0.353373
0.347152
0.340994
0.3349
0.328872
0.322911
0.317016
0.31119
0.305433
0.299745
0.294127
0.288581
0.283105
0.277701
0.272369
0.26711
0.261923
0.256809
0.251768
0.246799
0.241904
0.237081
0.232332
0.227655
0.22305
0.218518
0.214058
0.209669
0.205352
0.201106
0.19693
0.192824
0.188788
0.184821
0.180923
0.177092
0.173329
0.169632
0.166002
0.162437
0.158938
0.155502
0.152129
0.14882
0.145572
0.142385
0.139259
0.136192
0.133185
0.130236
0.127343
0.124508
0.121728
0.119003
0.116333
0.113715
0.111151
0.108638
0.106175
0.103763
0.101401
0.0990867
0.0968203
0.0946009
0.0924276
0.0902997
0.0882164
0.0861769
0.0841805
0.0822264
0.0803138
0.0784419
0.0766102
0.0748177
0.0730639
0.0713479
0.0696691
0.0680268
0.0664203
0.0648488
0.0633118
0.0618085
0.0603383
0.0589005
0.0574946
0.0561199
0.0547757
0.0534614
0.0521765
0.0509204
0.0496924
0.048492
0.0473187
0.0461719
0.0450509
0.0439554
0.0428847
0.0418384
0.040816
0.0398168
0.0388406
0.0378867
0.0369547
0.0360441
0.0351544
0.0342854
0.0334363
0.032607
0.0317969
0.0310056
0.0302326
0.0294777
0.0287405
0.0280204
0.0273172
0.0266305
0.0259599
0.0253051
0.0246657
0.0240414
0.0234319
0.0228367
0.0222557
0.0216885
0.0211347
0.0205942
0.0200665
0.0195515
0.0190487
0.018558
0.0180791
0.0176117
0.0171556
0.0167104
0.016276
0.0158521
0.0154385
0.0150349
0.0146411
0.0142569
0.0138821
0.0135164
0.0131597
0.0128117
0.0124723
0.0121412
0.0118183
0.0115033
0.0111961
0.0108966
0.0106044
0.0103196
0.0100418
0.00977095
0.00950686
0.00924939
0.00899838
0.00875368
0.00851514
0.00828261
0.00805596
0.00783506
0.00761975
0.00740992
0.00720544
0.00700618
0.00681201
0.00662282
0.00643849
0.0062589
0.00608395
0.00591351
0.00574749
0.00558578
0.00542827
0.00527487
0.00512548
0.00497999
0.00483833
0.00470038
0.00456608
0.00443532
0.00430802
0.0041841
0.00406347
0.00394605
0.00383178
0.00372056
0.00361233
0.003507
0.00340452
0.00330481
0.00320779
0.00311341
0.0030216
0.0029323
0.00284543
0.00276095
0.00267878
0.00259888
0.00252119
0.00244564
0.00237219
0.00230079
0.00223137
0.00216389
0.00209831
0.00203456
0.00197261
0.00191241
0.00185391
0.00179707
0.00174185
0.0016882
0.00163608
0.00158545
0.00153628
0.00148853
0.00144215
0.00139711
0.00135338
0.00131093
0.0012697
0.00122969
0.00119084
0.00115314
0.00111655
0.00108103
0.00104657
0.00101313
0.000980685
0.000949207
0.000918669
0.000889046
0.000860313
0.000832445
0.000805418
0.000779209
0.000753795
0.000729155
0.000705265
0.000682106
0.000659656
0.000637896
0.000616806
0.000596368
0.000576561
0.000557369
0.000538775
0.00052076
0.000503308
0.000486402
0.000470028
0.00045417
0.000438812
0.00042394
0.00040954
0.000395598
0.0003821
0.000369034
0.000356386
0.000344144
0.000332297
0.000320831
0.000309737
0.000299002
0.000288617
0.00027857
0.000268851
0.00025945
0.000250358
0.000241564
0.000233061
0.000224839
0.00021689
0.000209205
0.000201775
0.000194594
0.000187652
0.000180944
0.000174461
0.000168197
0.000162144
0.000156296
0.000150647
0.00014519
0.000139919
0.000134828
0.000129911
0.000125164
0.00012058
0.000116154
0.000111881
0.000107756
0.000103775
9.99326e-05
9.62242e-05
9.26457e-05
8.91928e-05
8.58613e-05
8.26473e-05
7.95469e-05
7.65563e-05
7.3672e-05
7.08905e-05
6.82082e-05
6.56219e-05
6.31285e-05
6.07248e-05
5.84079e-05
5.61748e-05
5.40228e-05
5.19491e-05
4.99512e-05
4.80265e-05
4.61726e-05
4.43872e-05
4.26681e-05
4.10129e-05
3.94198e-05
3.78867e-05
3.64116e-05
3.49929e-05
3.36287e-05
3.23175e-05
3.10576e-05
2.98478e-05
2.86866e-05
2.75728e-05
2.65054e-05
2.54833e-05
2.45057e-05
2.35719e-05
2.26814e-05
2.18338e-05
2.10289e-05
2.02667e-05
1.95474e-05
1.88716e-05
1.82401e-05
1.76538e-05
1.71142e-05
1.66231e-05
1.61826e-05
1.57952e-05
1.54637e-05
1.51916e-05
1.49823e-05
1.48394e-05
1.47666e-05
)
;
    }
    Wall
    {
        type            calculated;
        value           nonuniform List<scalar> 
400
(
0.723392
0.709435
0.699197
0.689839
0.680945
0.672479
0.664344
0.65645
0.648734
0.641151
0.633667
0.626257
0.618899
0.611579
0.604285
0.597008
0.589743
0.582485
0.575231
0.56798
0.560731
0.553484
0.546241
0.539002
0.53177
0.524545
0.517331
0.510129
0.502942
0.495772
0.488622
0.481495
0.474392
0.467316
0.460271
0.453257
0.446278
0.439336
0.432433
0.425571
0.418752
0.411979
0.405254
0.398578
0.391953
0.385382
0.378865
0.372404
0.366001
0.359657
0.353374
0.347153
0.340996
0.334902
0.328874
0.322913
0.317018
0.311192
0.305435
0.299747
0.294129
0.288583
0.283107
0.277703
0.272371
0.267112
0.261925
0.256811
0.25177
0.246801
0.241906
0.237084
0.232334
0.227657
0.223052
0.21852
0.21406
0.209671
0.205354
0.201108
0.196932
0.192826
0.18879
0.184823
0.180924
0.177094
0.173331
0.169634
0.166004
0.162439
0.158939
0.155503
0.152131
0.148821
0.145573
0.142387
0.13926
0.136194
0.133186
0.130237
0.127345
0.124509
0.121729
0.119005
0.116334
0.113717
0.111152
0.108639
0.106177
0.103765
0.101402
0.0990878
0.0968214
0.094602
0.0924287
0.0903008
0.0882174
0.0861779
0.0841815
0.0822273
0.0803147
0.0784429
0.0766111
0.0748187
0.0730648
0.0713488
0.06967
0.0680277
0.0664211
0.0648496
0.0633126
0.0618092
0.060339
0.0589013
0.0574953
0.0561206
0.0547764
0.0534621
0.0521772
0.050921
0.0496931
0.0484927
0.0473193
0.0461725
0.0450515
0.043956
0.0428853
0.041839
0.0408165
0.0398174
0.0388411
0.0378872
0.0369552
0.0360446
0.0351549
0.0342858
0.0334368
0.0326074
0.0317973
0.031006
0.0302331
0.0294782
0.0287409
0.0280208
0.0273176
0.0266309
0.0259603
0.0253055
0.0246661
0.0240418
0.0234322
0.0228371
0.022256
0.0216888
0.0211351
0.0205945
0.0200668
0.0195518
0.019049
0.0185583
0.0180794
0.017612
0.0171558
0.0167107
0.0162762
0.0158523
0.0154387
0.0150351
0.0146413
0.0142571
0.0138823
0.0135166
0.0131599
0.0128119
0.0124725
0.0121414
0.0118185
0.0115035
0.0111963
0.0108968
0.0106046
0.0103198
0.010042
0.00977112
0.00950703
0.00924956
0.00899854
0.00875384
0.00851529
0.00828276
0.00805611
0.0078352
0.0076199
0.00741007
0.00720558
0.00700631
0.00681214
0.00662295
0.00643862
0.00625903
0.00608407
0.00591363
0.00574761
0.00558589
0.00542838
0.00527498
0.00512558
0.0049801
0.00483843
0.00470048
0.00456618
0.00443541
0.00430811
0.00418419
0.00406356
0.00394614
0.00383186
0.00372064
0.00361241
0.00350708
0.0034046
0.00330488
0.00320787
0.00311349
0.00302168
0.00293237
0.0028455
0.00276101
0.00267885
0.00259895
0.00252125
0.0024457
0.00237225
0.00230084
0.00223143
0.00216395
0.00209836
0.00203461
0.00197266
0.00191246
0.00185396
0.00179712
0.00174189
0.00168824
0.00163612
0.0015855
0.00153633
0.00148857
0.00144219
0.00139715
0.00135342
0.00131096
0.00126974
0.00122972
0.00119088
0.00115318
0.00111658
0.00108107
0.0010466
0.00101316
0.000980716
0.000949236
0.000918698
0.000889074
0.00086034
0.000832471
0.000805444
0.000779235
0.00075382
0.000729179
0.000705289
0.000682129
0.000659679
0.000637918
0.000616827
0.000596388
0.000576581
0.000557389
0.000538794
0.000520778
0.000503326
0.00048642
0.000470045
0.000454187
0.000438828
0.000423956
0.000409555
0.000395613
0.000382115
0.000369048
0.0003564
0.000344158
0.00033231
0.000320844
0.000309749
0.000299014
0.000288628
0.000278581
0.000268862
0.00025946
0.000250368
0.000241574
0.000233071
0.000224849
0.000216899
0.000209213
0.000201784
0.000194602
0.00018766
0.000180952
0.000174469
0.000168204
0.000162151
0.000156303
0.000150654
0.000145196
0.000139925
0.000134834
0.000129917
0.00012517
0.000120585
0.000116159
0.000111886
0.000107762
0.00010378
9.99374e-05
9.62289e-05
9.26502e-05
8.91971e-05
8.58655e-05
8.26513e-05
7.95508e-05
7.65601e-05
7.36757e-05
7.0894e-05
6.82116e-05
6.56253e-05
6.31317e-05
6.07279e-05
5.84109e-05
5.61777e-05
5.40256e-05
5.19518e-05
4.99538e-05
4.8029e-05
4.61751e-05
4.43896e-05
4.26704e-05
4.10152e-05
3.9422e-05
3.78887e-05
3.64136e-05
3.49948e-05
3.36306e-05
3.23192e-05
3.10593e-05
2.98494e-05
2.86882e-05
2.75743e-05
2.65068e-05
2.54847e-05
2.45071e-05
2.35733e-05
2.26827e-05
2.18351e-05
2.10301e-05
2.02678e-05
1.95486e-05
1.88728e-05
1.82412e-05
1.76549e-05
1.71153e-05
1.66241e-05
1.61836e-05
1.57962e-05
1.54647e-05
1.51926e-05
1.49832e-05
1.48402e-05
1.47673e-05
)
;
    }
}


// ************************************************************************* //
