/*--------------------------------*- C++ -*----------------------------------*\
  =========                 |
  \\      /  F ield         | OpenFOAM: The Open Source CFD Toolbox
   \\    /   O peration     | Website:  https://openfoam.org
    \\  /    A nd           | Version:  dev
     \\/     M anipulation  |
\*---------------------------------------------------------------------------*/
FoamFile
{
    format      ascii;
    class       volScalarField;
    location    "0.28";
    object      N1;
}
// * * * * * * * * * * * * * * * * * * * * * * * * * * * * * * * * * * * * * //

dimensions      [0 0 0 0 0 0 0];

internalField   nonuniform List<scalar> 
8000
(
6.47763e-07
2.06346e-06
3.6208e-06
5.31272e-06
7.13979e-06
9.10769e-06
1.12219e-05
1.3488e-05
1.59125e-05
1.85022e-05
2.12644e-05
2.42066e-05
2.73365e-05
3.06622e-05
3.41914e-05
3.79322e-05
4.18925e-05
4.60803e-05
5.05036e-05
5.51701e-05
6.00878e-05
6.52642e-05
7.07072e-05
7.64243e-05
8.24231e-05
8.87111e-05
9.52957e-05
0.000102184
0.000109384
0.000116902
0.000124745
0.00013292
0.000141435
0.000150296
0.000159509
0.000169082
0.000179019
0.000189329
0.000200016
0.000211087
0.000222547
0.000234402
0.000246657
0.000259317
0.000272388
0.000285874
0.000299779
0.000314108
0.000328864
0.000344053
0.000359676
0.000375737
0.00039224
0.000409187
0.00042658
0.000444421
0.000462712
0.000481455
0.00050065
0.000520298
0.000540401
0.000560957
0.000581967
0.000603429
0.000625344
0.000647708
0.000670522
0.000693782
0.000717486
0.00074163
0.000766212
0.000791228
0.000816673
0.000842543
0.000868833
0.000895537
0.000922649
0.000950163
0.000978071
0.00100637
0.00103504
0.00106409
0.0010935
0.00112327
0.00115338
0.00118383
0.0012146
0.00124568
0.00127707
0.00130875
0.0013407
0.00137293
0.0014054
0.00143812
0.00147106
0.00150422
0.00153757
0.00157111
0.00160482
0.00163867
0.00167267
0.00170678
0.001741
0.0017753
0.00180967
0.0018441
0.00187856
0.00191303
0.00194751
0.00198196
0.00201637
0.00205073
0.002085
0.00211918
0.00215325
0.00218718
0.00222095
0.00225455
0.00228796
0.00232115
0.00235411
0.00238681
0.00241924
0.00245138
0.0024832
0.00251469
0.00254583
0.0025766
0.00260698
0.00263694
0.00266648
0.00269557
0.00272419
0.00275233
0.00277997
0.00280708
0.00283366
0.00285969
0.00288514
0.00291
0.00293427
0.00295791
0.00298092
0.00300328
0.00302497
0.00304599
0.00306632
0.00308595
0.00310486
0.00312304
0.00314049
0.00315718
0.00317312
0.00318829
0.00320268
0.00321629
0.0032291
0.00324111
0.00325231
0.00326271
0.00327228
0.00328103
0.00328895
0.00329605
0.00330231
0.00330774
0.00331233
0.00331608
0.003319
0.00332108
0.00332232
0.00332274
0.00332232
0.00332108
0.00331901
0.00331612
0.00331242
0.0033079
0.00330258
0.00329646
0.00328955
0.00328186
0.00327339
0.00326416
0.00325418
0.00324345
0.00323198
0.00321978
0.00320688
0.00319327
0.00317897
0.00316399
0.00314835
0.00313206
0.00311513
0.00309757
0.00307941
0.00306065
0.00304131
0.0030214
0.00300094
0.00297995
0.00295844
0.00293643
0.00291393
0.00289096
0.00286754
0.00284368
0.00281939
0.00279471
0.00276963
0.00274419
0.00271839
0.00269225
0.0026658
0.00263904
0.00261199
0.00258467
0.0025571
0.0025293
0.00250127
0.00247304
0.00244462
0.00241603
0.00238728
0.0023584
0.00232939
0.00230027
0.00227105
0.00224176
0.0022124
0.002183
0.00215355
0.00212409
0.00209462
0.00206516
0.00203571
0.0020063
0.00197693
0.00194761
0.00191837
0.00188921
0.00186014
0.00183118
0.00180232
0.0017736
0.00174501
0.00171656
0.00168827
0.00166014
0.00163219
0.00160442
0.00157684
0.00154945
0.00152227
0.00149531
0.00146856
0.00144204
0.00141575
0.00138971
0.0013639
0.00133835
0.00131305
0.00128802
0.00126325
0.00123874
0.00121451
0.00119056
0.00116689
0.0011435
0.0011204
0.00109759
0.00107506
0.00105284
0.0010309
0.00100927
0.00098793
0.000966892
0.000946155
0.000925719
0.000905585
0.000885753
0.000866223
0.000846995
0.00082807
0.000809445
0.000791122
0.000773099
0.000755375
0.000737949
0.000720819
0.000703985
0.000687445
0.000671198
0.00065524
0.000639571
0.000624189
0.00060909
0.000594274
0.000579738
0.000565479
0.000551494
0.000537782
0.000524339
0.000511163
0.000498251
0.0004856
0.000473207
0.000461068
0.000449182
0.000437544
0.000426153
0.000415003
0.000404093
0.000393419
0.000382977
0.000372765
0.000362779
0.000353016
0.000343472
0.000334144
0.000325029
0.000316123
0.000307423
0.000298925
0.000290626
0.000282523
0.000274613
0.000266891
0.000259356
0.000252002
0.000244828
0.000237829
0.000231003
0.000224346
0.000217855
0.000211527
0.000205358
0.000199346
0.000193488
0.000187779
0.000182218
0.000176801
0.000171526
0.000166388
0.000161386
0.000156517
0.000151777
0.000147164
0.000142676
0.000138308
0.000134059
0.000129927
0.000125908
0.000121999
0.0001182
0.000114506
0.000110915
0.000107426
0.000104036
0.000100742
9.75423e-05
9.4435e-05
9.14177e-05
8.84884e-05
8.5645e-05
8.28857e-05
8.02086e-05
7.76119e-05
7.50937e-05
7.26525e-05
7.02866e-05
6.79946e-05
6.5775e-05
6.36266e-05
6.15481e-05
5.95385e-05
5.75968e-05
5.57222e-05
5.39141e-05
5.21719e-05
5.04955e-05
4.88848e-05
4.73399e-05
4.58613e-05
4.44498e-05
4.31065e-05
4.18329e-05
4.06309e-05
3.95028e-05
3.84516e-05
3.74806e-05
3.6594e-05
3.57965e-05
3.50933e-05
3.44905e-05
3.39946e-05
3.36127e-05
3.33518e-05
3.32187e-05
6.34579e-07
2.03412e-06
3.57838e-06
5.26464e-06
7.09212e-06
9.06442e-06
1.11862e-05
1.34629e-05
1.59008e-05
1.85068e-05
2.12882e-05
2.42528e-05
2.74083e-05
3.07631e-05
3.4325e-05
3.81025e-05
4.21036e-05
4.63367e-05
5.08097e-05
5.55309e-05
6.05084e-05
6.57501e-05
7.1264e-05
7.7058e-05
8.314e-05
8.95176e-05
9.61988e-05
0.000103191
0.000110502
0.000118139
0.000126109
0.00013442
0.000143079
0.000152093
0.000161469
0.000171214
0.000181335
0.000191837
0.000202728
0.000214013
0.000225699
0.000237792
0.000250296
0.000263218
0.000276563
0.000290336
0.000304542
0.000319184
0.000334268
0.000349798
0.000365777
0.000382208
0.000399096
0.000416442
0.00043425
0.000452521
0.000471258
0.000490462
0.000510135
0.000530277
0.000550889
0.000571971
0.000593523
0.000615544
0.000638035
0.000660992
0.000684415
0.000708301
0.000732647
0.000757452
0.00078271
0.00080842
0.000834575
0.000861172
0.000888206
0.00091567
0.000943559
0.000971866
0.00100058
0.00102971
0.00105922
0.00108913
0.00111941
0.00115007
0.00118108
0.00121245
0.00124415
0.00127618
0.00130853
0.00134118
0.00137412
0.00140734
0.00144083
0.00147457
0.00150855
0.00154275
0.00157716
0.00161176
0.00164655
0.00168149
0.00171658
0.00175179
0.00178712
0.00182254
0.00185803
0.00189359
0.00192918
0.00196479
0.00200041
0.00203601
0.00207157
0.00210707
0.0021425
0.00217784
0.00221306
0.00224814
0.00228306
0.00231781
0.00235236
0.0023867
0.00242079
0.00245463
0.00248819
0.00252145
0.00255439
0.00258698
0.00261922
0.00265108
0.00268254
0.00271357
0.00274417
0.0027743
0.00280396
0.00283312
0.00286176
0.00288987
0.00291743
0.00294441
0.00297081
0.0029966
0.00302178
0.00304631
0.00307019
0.00309341
0.00311594
0.00313777
0.00315889
0.00317929
0.00319895
0.00321786
0.00323601
0.00325338
0.00326998
0.00328578
0.00330078
0.00331496
0.00332833
0.00334088
0.00335259
0.00336346
0.00337348
0.00338266
0.00339098
0.00339845
0.00340506
0.0034108
0.00341568
0.0034197
0.00342285
0.00342514
0.00342656
0.00342712
0.00342683
0.00342569
0.00342369
0.00342084
0.00341714
0.00341261
0.00340725
0.00340106
0.00339405
0.00338624
0.00337762
0.00336822
0.00335803
0.00334707
0.00333534
0.00332287
0.00330966
0.00329572
0.00328107
0.00326571
0.00324967
0.00323295
0.00321558
0.00319755
0.0031789
0.00315962
0.00313975
0.00311929
0.00309826
0.00307668
0.00305456
0.00303191
0.00300876
0.00298513
0.00296102
0.00293646
0.00291146
0.00288605
0.00286023
0.00283402
0.00280745
0.00278053
0.00275327
0.0027257
0.00269783
0.00266968
0.00264127
0.00261261
0.00258372
0.00255462
0.00252532
0.00249585
0.00246621
0.00243642
0.0024065
0.00237647
0.00234634
0.00231613
0.00228585
0.00225551
0.00222514
0.00219474
0.00216434
0.00213393
0.00210355
0.0020732
0.00204289
0.00201264
0.00198246
0.00195236
0.00192236
0.00189246
0.00186268
0.00183303
0.00180351
0.00177415
0.00174494
0.0017159
0.00168704
0.00165836
0.00162988
0.0016016
0.00157354
0.00154569
0.00151807
0.00149068
0.00146353
0.00143663
0.00140998
0.00138359
0.00135746
0.0013316
0.00130601
0.0012807
0.00125567
0.00123092
0.00120647
0.0011823
0.00115844
0.00113487
0.0011116
0.00108863
0.00106597
0.00104361
0.00102156
0.000999822
0.000978393
0.000957275
0.000936468
0.000915973
0.000895789
0.000875918
0.000856358
0.000837109
0.000818171
0.000799542
0.000781223
0.000763211
0.000745505
0.000728104
0.000711007
0.000694211
0.000677716
0.000661518
0.000645616
0.000630007
0.00061469
0.000599662
0.00058492
0.000570462
0.000556285
0.000542387
0.000528764
0.000515413
0.000502332
0.000489518
0.000476967
0.000464676
0.000452643
0.000440863
0.000429334
0.000418052
0.000407013
0.000396216
0.000385655
0.000375328
0.000365231
0.000355361
0.000345714
0.000336287
0.000327076
0.000318078
0.000309289
0.000300706
0.000292325
0.000284144
0.000276157
0.000268363
0.000260756
0.000253335
0.000246096
0.000239035
0.000232149
0.000225435
0.000218889
0.000212508
0.000206289
0.000200228
0.000194323
0.00018857
0.000182966
0.000177508
0.000172194
0.000167019
0.000161981
0.000157078
0.000152305
0.000147661
0.000143142
0.000138747
0.000134471
0.000130312
0.000126269
0.000122337
0.000118515
0.0001148
0.000111189
0.000107681
0.000104273
0.000100962
9.77467e-05
9.46244e-05
9.15931e-05
8.86507e-05
8.57953e-05
8.30248e-05
8.03374e-05
7.77313e-05
7.52047e-05
7.27561e-05
7.03838e-05
6.80865e-05
6.58626e-05
6.37111e-05
6.16307e-05
5.96206e-05
5.76797e-05
5.58075e-05
5.40035e-05
5.22673e-05
5.05989e-05
4.89984e-05
4.74664e-05
4.60035e-05
4.4611e-05
4.32902e-05
4.20432e-05
4.08723e-05
3.97805e-05
3.87714e-05
3.78492e-05
3.70186e-05
3.62852e-05
3.56554e-05
3.51361e-05
3.47349e-05
3.44597e-05
3.43184e-05
6.22734e-07
1.99767e-06
3.5134e-06
5.17388e-06
6.98094e-06
8.93745e-06
1.10474e-05
1.33158e-05
1.57486e-05
1.83524e-05
2.11345e-05
2.41027e-05
2.72648e-05
3.06291e-05
3.42038e-05
3.79972e-05
4.20177e-05
4.62736e-05
5.07734e-05
5.55252e-05
6.05374e-05
6.58182e-05
7.13759e-05
7.72185e-05
8.33541e-05
8.97907e-05
9.65365e-05
0.000103599
0.000110987
0.000118706
0.000126767
0.000135175
0.000143938
0.000153064
0.000162559
0.000172432
0.000182689
0.000193336
0.000204381
0.00021583
0.000227689
0.000239965
0.000252663
0.000265789
0.000279349
0.000293348
0.000307791
0.000322683
0.000338028
0.000353831
0.000370096
0.000386826
0.000404024
0.000421695
0.000439841
0.000458464
0.000477566
0.000497149
0.000517215
0.000537765
0.000558799
0.000580318
0.000602322
0.000624811
0.000647782
0.000671236
0.000695171
0.000719584
0.000744473
0.000769836
0.000795668
0.000821966
0.000848726
0.000875942
0.00090361
0.000931725
0.000960279
0.000989267
0.00101868
0.00104851
0.00107876
0.0011094
0.00114044
0.00117187
0.00120366
0.00123582
0.00126834
0.00130119
0.00133438
0.00136788
0.00140168
0.00143578
0.00147016
0.0015048
0.00153969
0.00157481
0.00161015
0.0016457
0.00168143
0.00171734
0.0017534
0.00178959
0.0018259
0.00186232
0.00189882
0.00193538
0.00197199
0.00200862
0.00204526
0.00208189
0.00211848
0.00215502
0.00219149
0.00222787
0.00226413
0.00230025
0.00233622
0.00237201
0.00240761
0.00244298
0.00247812
0.00251299
0.00254758
0.00258187
0.00261583
0.00264945
0.0026827
0.00271556
0.00274801
0.00278004
0.00281162
0.00284273
0.00287335
0.00290346
0.00293304
0.00296208
0.00299055
0.00301844
0.00304573
0.0030724
0.00309844
0.00312382
0.00314853
0.00317256
0.00319589
0.0032185
0.00324038
0.00326153
0.00328191
0.00330153
0.00332036
0.0033384
0.00335564
0.00337207
0.00338767
0.00340244
0.00341637
0.00342945
0.00344167
0.00345303
0.00346353
0.00347315
0.00348189
0.00348975
0.00349673
0.00350282
0.00350802
0.00351234
0.00351576
0.0035183
0.00351994
0.0035207
0.00352058
0.0035196
0.00351772
0.00351496
0.00351134
0.00350685
0.00350151
0.00349532
0.00348828
0.00348041
0.00347172
0.00346221
0.0034519
0.00344079
0.00342889
0.00341622
0.00340279
0.00338861
0.00337369
0.00335805
0.00334169
0.00332465
0.00330691
0.00328852
0.00326947
0.00324978
0.00322947
0.00320855
0.00318705
0.00316497
0.00314234
0.00311917
0.00309548
0.00307128
0.00304659
0.00302144
0.00299583
0.00296979
0.00294333
0.00291647
0.00288923
0.00286163
0.00283368
0.0028054
0.00277682
0.00274794
0.00271879
0.00268938
0.00265974
0.00262987
0.0025998
0.00256954
0.00253911
0.00250853
0.00247781
0.00244696
0.00241602
0.00238499
0.00235388
0.00232272
0.00229151
0.00226028
0.00222903
0.00219779
0.00216657
0.00213537
0.00210422
0.00207312
0.0020421
0.00201115
0.0019803
0.00194956
0.00191894
0.00188844
0.00185809
0.00182789
0.00179785
0.00176798
0.00173829
0.00170879
0.00167949
0.00165039
0.00162152
0.00159286
0.00156444
0.00153626
0.00150832
0.00148063
0.0014532
0.00142604
0.00139914
0.00137252
0.00134618
0.00132013
0.00129436
0.00126888
0.0012437
0.00121882
0.00119425
0.00116998
0.00114602
0.00112236
0.00109903
0.001076
0.00105329
0.0010309
0.00100883
0.000987079
0.000965646
0.000944534
0.000923742
0.000903271
0.00088312
0.000863289
0.000843777
0.000824583
0.000805707
0.000787148
0.000768903
0.000750973
0.000733354
0.000716045
0.000699046
0.000682352
0.000665963
0.000649876
0.000634089
0.000618599
0.000603404
0.000588501
0.000573887
0.00055956
0.000545517
0.000531753
0.000518268
0.000505057
0.000492117
0.000479445
0.000467038
0.000454892
0.000443005
0.000431372
0.00041999
0.000408855
0.000397965
0.000387316
0.000376903
0.000366724
0.000356775
0.000347053
0.000337553
0.000328273
0.000319208
0.000310355
0.000301711
0.000293272
0.000285034
0.000276993
0.000269147
0.000261492
0.000254024
0.00024674
0.000239636
0.000232709
0.000225956
0.000219373
0.000212956
0.000206703
0.00020061
0.000194675
0.000188892
0.000183261
0.000177777
0.000172437
0.000167239
0.000162179
0.000157254
0.000152461
0.000147798
0.000143262
0.000138849
0.000134557
0.000130384
0.000126326
0.000122381
0.000118547
0.00011482
0.000111199
0.000107681
0.000104264
0.000100945
9.77215e-05
9.45923e-05
9.15548e-05
8.86069e-05
8.57466e-05
8.2972e-05
8.02813e-05
7.76726e-05
7.51442e-05
7.26945e-05
7.0322e-05
6.80254e-05
6.58032e-05
6.36543e-05
6.15777e-05
5.95725e-05
5.7638e-05
5.57736e-05
5.3979e-05
5.2254e-05
5.05989e-05
4.90141e-05
4.75002e-05
4.60585e-05
4.46904e-05
4.33978e-05
4.21832e-05
4.10496e-05
4.00007e-05
3.90407e-05
3.81745e-05
3.74082e-05
3.67483e-05
3.62022e-05
3.57785e-05
3.54861e-05
3.53348e-05
6.10963e-07
1.9595e-06
3.44385e-06
5.07123e-06
6.8466e-06
8.77406e-06
1.0858e-05
1.31036e-05
1.55166e-05
1.81037e-05
2.0872e-05
2.38292e-05
2.69832e-05
3.03421e-05
3.39142e-05
3.77079e-05
4.17315e-05
4.59936e-05
5.05025e-05
5.52668e-05
6.02947e-05
6.55948e-05
7.11754e-05
7.70448e-05
8.32113e-05
8.96832e-05
9.64686e-05
0.000103576
0.000111012
0.000118787
0.000126907
0.000135381
0.000144216
0.00015342
0.000163001
0.000172965
0.00018332
0.000194073
0.000205232
0.000216802
0.000228791
0.000241205
0.00025405
0.000267332
0.000281057
0.00029523
0.000309857
0.000324943
0.000340493
0.000356511
0.000373001
0.000389968
0.000407415
0.000425345
0.000443761
0.000462667
0.000482064
0.000501954
0.00052234
0.000543222
0.000564601
0.000586477
0.000608852
0.000631724
0.000655093
0.000678957
0.000703316
0.000728167
0.000753507
0.000779335
0.000805645
0.000832436
0.000859702
0.000887439
0.000915641
0.000944303
0.000973419
0.00100298
0.00103299
0.00106342
0.00109428
0.00112556
0.00115724
0.00118932
0.00122178
0.00125463
0.00128784
0.0013214
0.0013553
0.00138954
0.00142409
0.00145894
0.00149408
0.0015295
0.00156518
0.0016011
0.00163726
0.00167362
0.00171019
0.00174693
0.00178383
0.00182088
0.00185806
0.00189535
0.00193273
0.00197017
0.00200767
0.0020452
0.00208275
0.00212028
0.00215779
0.00219525
0.00223264
0.00226994
0.00230712
0.00234418
0.00238108
0.0024178
0.00245432
0.00249063
0.00252669
0.0025625
0.00259801
0.00263322
0.00266811
0.00270264
0.0027368
0.00277058
0.00280393
0.00283686
0.00286933
0.00290132
0.00293281
0.0029638
0.00299424
0.00302413
0.00305344
0.00308216
0.00311027
0.00313775
0.00316458
0.00319074
0.00321623
0.00324101
0.00326508
0.00328843
0.00331102
0.00333286
0.00335393
0.00337421
0.0033937
0.00341237
0.00343022
0.00344724
0.00346342
0.00347875
0.00349322
0.00350682
0.00351955
0.00353139
0.00354234
0.0035524
0.00356157
0.00356983
0.00357718
0.00358363
0.00358916
0.00359379
0.0035975
0.00360031
0.0036022
0.00360318
0.00360326
0.00360246
0.00360074
0.00359811
0.0035946
0.00359021
0.00358493
0.00357878
0.00357177
0.0035639
0.00355519
0.00354563
0.00353525
0.00352405
0.00351205
0.00349925
0.00348566
0.00347131
0.0034562
0.00344034
0.00342375
0.00340645
0.00338844
0.00336975
0.00335039
0.00333037
0.00330971
0.00328843
0.00326654
0.00324406
0.00322101
0.0031974
0.00317326
0.00314859
0.00312342
0.00309777
0.00307165
0.00304508
0.00301808
0.00299066
0.00296286
0.00293467
0.00290613
0.00287725
0.00284806
0.00281855
0.00278877
0.00275871
0.00272841
0.00269788
0.00266714
0.0026362
0.00260508
0.0025738
0.00254238
0.00251083
0.00247918
0.00244742
0.00241559
0.0023837
0.00235176
0.0023198
0.00228781
0.00225583
0.00222386
0.00219192
0.00216002
0.00212817
0.0020964
0.0020647
0.0020331
0.00200161
0.00197024
0.001939
0.00190789
0.00187694
0.00184616
0.00181555
0.00178512
0.00175488
0.00172485
0.00169502
0.00166542
0.00163604
0.0016069
0.001578
0.00154935
0.00152096
0.00149283
0.00146497
0.00143739
0.00141008
0.00138306
0.00135633
0.0013299
0.00130376
0.00127793
0.0012524
0.00122718
0.00120228
0.00117769
0.00115342
0.00112946
0.00110583
0.00108253
0.00105955
0.00103689
0.00101456
0.000992557
0.000970883
0.000949537
0.000928519
0.000907829
0.000887466
0.000867431
0.000847722
0.000828338
0.000809278
0.000790541
0.000772125
0.00075403
0.000736252
0.00071879
0.000701643
0.000684808
0.000668282
0.000652064
0.000636151
0.000620539
0.000605228
0.000590213
0.000575492
0.000561062
0.00054692
0.000533062
0.000519486
0.000506188
0.000493166
0.000480415
0.000467932
0.000455714
0.000443757
0.000432058
0.000420613
0.000409419
0.000398472
0.000387768
0.000377304
0.000367076
0.000357081
0.000347314
0.000337773
0.000328453
0.000319351
0.000310462
0.000301785
0.000293314
0.000285046
0.000276978
0.000269105
0.000261425
0.000253934
0.000246628
0.000239504
0.000232559
0.000225788
0.000219188
0.000212756
0.000206489
0.000200384
0.000194436
0.000188643
0.000183001
0.000177508
0.00017216
0.000166955
0.000161888
0.000156957
0.00015216
0.000147492
0.000142952
0.000138536
0.000134242
0.000130066
0.000126007
0.000122061
0.000118227
0.0001145
0.00011088
0.000107363
0.000103947
0.000100629
9.74087e-05
9.42822e-05
9.12479e-05
8.83036e-05
8.54475e-05
8.26775e-05
7.99918e-05
7.73887e-05
7.48664e-05
7.24235e-05
7.00584e-05
6.77698e-05
6.55565e-05
6.34174e-05
6.13515e-05
5.93581e-05
5.74366e-05
5.55867e-05
5.38081e-05
5.21009e-05
5.04656e-05
4.89029e-05
4.74139e-05
4.6e-05
4.46632e-05
4.34059e-05
4.22312e-05
4.11427e-05
4.01449e-05
3.92429e-05
3.84429e-05
3.77518e-05
3.71779e-05
3.67303e-05
3.64197e-05
3.62579e-05
5.99854e-07
1.9233e-06
3.37799e-06
4.97196e-06
6.71225e-06
8.60474e-06
1.06551e-05
1.2869e-05
1.5253e-05
1.78137e-05
2.05583e-05
2.34945e-05
2.66302e-05
2.99734e-05
3.35323e-05
3.73153e-05
4.13309e-05
4.55874e-05
5.00933e-05
5.48572e-05
5.98875e-05
6.51927e-05
7.07813e-05
7.66617e-05
8.28425e-05
8.93321e-05
9.61388e-05
0.000103271
0.000110737
0.000118545
0.000126702
0.000135218
0.000144101
0.000153357
0.000162994
0.000173022
0.000183446
0.000194274
0.000205513
0.000217171
0.000229255
0.00024177
0.000254723
0.000268121
0.00028197
0.000296275
0.000311042
0.000326276
0.000341983
0.000358167
0.000374832
0.000391983
0.000409623
0.000427757
0.000446386
0.000465515
0.000485146
0.00050528
0.000525921
0.000547068
0.000568723
0.000590887
0.000613561
0.000636743
0.000660433
0.000684631
0.000709335
0.000734542
0.000760251
0.000786459
0.000813163
0.000840358
0.000868041
0.000896206
0.00092485
0.000953965
0.000983547
0.00101359
0.00104408
0.00107502
0.00110639
0.00113819
0.00117041
0.00120304
0.00123607
0.00126949
0.00130328
0.00133744
0.00137195
0.0014068
0.00144198
0.00147747
0.00151327
0.00154934
0.00158569
0.00162229
0.00165914
0.0016962
0.00173347
0.00177093
0.00180856
0.00184634
0.00188426
0.00192229
0.00196043
0.00199864
0.0020369
0.00207521
0.00211353
0.00215185
0.00219015
0.0022284
0.00226659
0.00230468
0.00234267
0.00238053
0.00241824
0.00245578
0.00249311
0.00253023
0.00256711
0.00260372
0.00264005
0.00267607
0.00271176
0.0027471
0.00278207
0.00281664
0.0028508
0.00288451
0.00291777
0.00295055
0.00298282
0.00301457
0.00304578
0.00307643
0.00310649
0.00313595
0.00316479
0.00319299
0.00322054
0.00324741
0.00327358
0.00329905
0.00332379
0.0033478
0.00337104
0.00339351
0.0034152
0.00343609
0.00345617
0.00347542
0.00349384
0.00351141
0.00352812
0.00354397
0.00355894
0.00357302
0.00358622
0.00359851
0.0036099
0.00362038
0.00362994
0.00363858
0.0036463
0.00365309
0.00365895
0.00366388
0.00366789
0.00367096
0.0036731
0.00367431
0.0036746
0.00367399
0.00367245
0.00366998
0.0036666
0.00366231
0.00365713
0.00365106
0.0036441
0.00363627
0.00362757
0.00361801
0.00360761
0.00359636
0.0035843
0.00357142
0.00355773
0.00354326
0.00352802
0.003512
0.00349525
0.00347775
0.00345954
0.00344062
0.00342102
0.00340074
0.00337981
0.00335823
0.00333604
0.00331324
0.00328985
0.00326588
0.00324137
0.00321632
0.00319075
0.00316469
0.00313814
0.00311114
0.00308369
0.00305581
0.00302753
0.00299887
0.00296983
0.00294044
0.00291073
0.0028807
0.00285038
0.00281978
0.00278892
0.00275783
0.00272651
0.00269499
0.00266329
0.00263142
0.0025994
0.00256724
0.00253497
0.00250261
0.00247016
0.00243764
0.00240507
0.00237247
0.00233985
0.00230723
0.00227461
0.00224203
0.00220948
0.00217699
0.00214456
0.00211222
0.00207996
0.00204782
0.00201579
0.0019839
0.00195215
0.00192055
0.00188911
0.00185785
0.00182678
0.0017959
0.00176522
0.00173476
0.00170452
0.00167451
0.00164474
0.00161521
0.00158594
0.00155693
0.00152818
0.00149971
0.00147152
0.00144361
0.00141599
0.00138867
0.00136165
0.00133493
0.00130852
0.00128242
0.00125664
0.00123117
0.00120603
0.00118121
0.00115671
0.00113255
0.00110871
0.0010852
0.00106203
0.00103919
0.00101668
0.000994507
0.000972669
0.000951166
0.000929998
0.000909163
0.000888663
0.000868495
0.000848659
0.000829154
0.000809979
0.000791132
0.000772612
0.000754416
0.000736543
0.000718991
0.000701758
0.000684841
0.000668238
0.000651947
0.000635964
0.000620288
0.000604915
0.000589842
0.000575067
0.000560585
0.000546395
0.000532492
0.000518875
0.000505538
0.000492479
0.000479694
0.00046718
0.000454933
0.00044295
0.000431227
0.00041976
0.000408546
0.000397581
0.000386861
0.000376383
0.000366143
0.000356136
0.000346361
0.000336811
0.000327485
0.000318377
0.000309485
0.000300805
0.000292332
0.000284064
0.000275997
0.000268126
0.000260448
0.000252961
0.000245659
0.00023854
0.0002316
0.000224835
0.000218242
0.000211818
0.000205559
0.000199462
0.000193524
0.00018774
0.000182109
0.000176626
0.000171289
0.000166094
0.000161038
0.000156119
0.000151333
0.000146678
0.00014215
0.000137746
0.000133464
0.000129302
0.000125255
0.000121322
0.000117501
0.000113788
0.00011018
0.000106677
0.000103274
9.99704e-05
9.67634e-05
9.36507e-05
9.06303e-05
8.77001e-05
8.48583e-05
8.21027e-05
7.94317e-05
7.68435e-05
7.43366e-05
7.19093e-05
6.95603e-05
6.72883e-05
6.50921e-05
6.29709e-05
6.09238e-05
5.89501e-05
5.70494e-05
5.52216e-05
5.34667e-05
5.17849e-05
5.01771e-05
4.86443e-05
4.71879e-05
4.58098e-05
4.45126e-05
4.32991e-05
4.21733e-05
4.11395e-05
4.02032e-05
3.93706e-05
3.86494e-05
3.80482e-05
3.75773e-05
3.72487e-05
3.70763e-05
5.90028e-07
1.89116e-06
3.31953e-06
4.88303e-06
6.58979e-06
8.44715e-06
1.04621e-05
1.26416e-05
1.49926e-05
1.75224e-05
2.02384e-05
2.31484e-05
2.62603e-05
2.9582e-05
3.31218e-05
3.6888e-05
4.08888e-05
4.51327e-05
4.96282e-05
5.43837e-05
5.94078e-05
6.47091e-05
7.0296e-05
7.61772e-05
8.23612e-05
8.88565e-05
9.56718e-05
0.000102815
0.000110296
0.000118122
0.000126301
0.000134842
0.000143753
0.000153041
0.000162716
0.000172785
0.000183255
0.000194134
0.000205429
0.000217148
0.000229298
0.000241885
0.000254917
0.000268399
0.000282338
0.00029674
0.000311611
0.000326956
0.00034278
0.000359088
0.000375886
0.000393176
0.000410964
0.000429254
0.000448047
0.000467349
0.00048716
0.000507484
0.000528323
0.000549677
0.000571549
0.000593939
0.000616847
0.000640274
0.000664219
0.000688681
0.000713658
0.00073915
0.000765153
0.000791665
0.000818682
0.000846202
0.000874219
0.00090273
0.000931729
0.00096121
0.000991168
0.0010216
0.00105249
0.00108383
0.00111562
0.00114785
0.00118051
0.00121359
0.00124707
0.00128096
0.00131523
0.00134987
0.00138488
0.00142024
0.00145594
0.00149196
0.00152829
0.00156491
0.00160181
0.00163898
0.00167639
0.00171403
0.00175189
0.00178994
0.00182817
0.00186657
0.0019051
0.00194376
0.00198252
0.00202136
0.00206027
0.00209923
0.0021382
0.00217718
0.00221614
0.00225506
0.00229391
0.00233268
0.00237135
0.00240989
0.00244828
0.0024865
0.00252452
0.00256233
0.00259989
0.00263719
0.00267421
0.00271092
0.0027473
0.00278333
0.00281898
0.00285424
0.00288907
0.00292346
0.00295739
0.00299084
0.00302378
0.00305619
0.00308806
0.00311936
0.00315007
0.00318017
0.00320964
0.00323847
0.00326663
0.00329411
0.00332089
0.00334695
0.00337227
0.00339685
0.00342065
0.00344368
0.00346591
0.00348733
0.00350793
0.0035277
0.00354661
0.00356467
0.00358185
0.00359816
0.00361357
0.00362809
0.0036417
0.0036544
0.00366618
0.00367704
0.00368696
0.00369595
0.003704
0.0037111
0.00371727
0.00372248
0.00372675
0.00373008
0.00373245
0.00373389
0.00373438
0.00373395
0.00373259
0.00373027
0.00372703
0.00372287
0.00371779
0.00371181
0.00370492
0.00369714
0.00368848
0.00367894
0.00366854
0.00365729
0.0036452
0.00363227
0.00361853
0.00360399
0.00358865
0.00357253
0.00355565
0.00353802
0.00351965
0.00350057
0.00348078
0.0034603
0.00343916
0.00341736
0.00339492
0.00337187
0.00334821
0.00332397
0.00329916
0.00327381
0.00324793
0.00322153
0.00319464
0.00316729
0.00313947
0.00311122
0.00308256
0.00305349
0.00302405
0.00299425
0.00296411
0.00293365
0.00290289
0.00287184
0.00284052
0.00280896
0.00277718
0.00274518
0.00271299
0.00268063
0.00264811
0.00261545
0.00258267
0.00254979
0.00251682
0.00248378
0.00245069
0.00241756
0.0023844
0.00235124
0.00231809
0.00228496
0.00225187
0.00221883
0.00218586
0.00215297
0.00212017
0.00208748
0.0020549
0.00202246
0.00199015
0.001958
0.00192602
0.00189421
0.00186259
0.00183117
0.00179995
0.00176894
0.00173816
0.00170761
0.00167731
0.00164725
0.00161745
0.00158791
0.00155864
0.00152965
0.00150094
0.00147252
0.00144439
0.00141656
0.00138904
0.00136182
0.00133492
0.00130833
0.00128207
0.00125612
0.0012305
0.00120521
0.00118026
0.00115563
0.00113134
0.00110738
0.00108377
0.00106049
0.00103755
0.00101495
0.000992687
0.000970767
0.000949188
0.000927949
0.000907048
0.000886487
0.000866263
0.000846376
0.000826824
0.000807605
0.000788719
0.000770164
0.000751937
0.000734037
0.000716461
0.000699207
0.000682273
0.000665656
0.000649353
0.000633362
0.00061768
0.000602304
0.00058723
0.000572456
0.000557978
0.000543794
0.000529899
0.000516291
0.000502966
0.000489921
0.000477151
0.000464653
0.000452424
0.00044046
0.000428758
0.000417313
0.000406122
0.00039518
0.000384485
0.000374033
0.000363819
0.00035384
0.000344092
0.000334571
0.000325273
0.000316195
0.000307333
0.000298683
0.000290242
0.000282005
0.000273968
0.000266129
0.000258483
0.000251028
0.000243758
0.000236671
0.000229763
0.00022303
0.00021647
0.000210077
0.00020385
0.000197785
0.000191878
0.000186126
0.000180526
0.000175075
0.000169768
0.000164604
0.000159579
0.00015469
0.000149934
0.000145309
0.00014081
0.000136436
0.000132183
0.000128049
0.00012403
0.000120126
0.000116332
0.000112646
0.000109065
0.000105589
0.000102213
9.89352e-05
9.57541e-05
9.26672e-05
8.96725e-05
8.67678e-05
8.39512e-05
8.12209e-05
7.85751e-05
7.60121e-05
7.35303e-05
7.11284e-05
6.8805e-05
6.6559e-05
6.43892e-05
6.22949e-05
6.02754e-05
5.83301e-05
5.64589e-05
5.46618e-05
5.29391e-05
5.12914e-05
4.97197e-05
4.82255e-05
4.68107e-05
4.54777e-05
4.42296e-05
4.30701e-05
4.20038e-05
4.10363e-05
4.01741e-05
3.94252e-05
3.87989e-05
3.83065e-05
3.79612e-05
3.77791e-05
5.81798e-07
1.86423e-06
3.27061e-06
4.80837e-06
6.48605e-06
8.312e-06
1.02944e-05
1.24412e-05
1.47603e-05
1.72595e-05
1.99467e-05
2.28298e-05
2.59167e-05
2.92156e-05
3.27345e-05
3.64817e-05
4.04653e-05
4.46938e-05
4.91755e-05
5.3919e-05
5.89328e-05
6.42253e-05
6.98053e-05
7.56814e-05
8.18621e-05
8.83562e-05
9.51723e-05
0.000102319
0.000109805
0.000117638
0.000125828
0.000134382
0.000143309
0.000152617
0.000162314
0.000172408
0.000182908
0.00019382
0.000205152
0.000216912
0.000229107
0.000241744
0.00025483
0.000268371
0.000282374
0.000296845
0.000311789
0.000327214
0.000343123
0.000359522
0.000376416
0.00039381
0.000411707
0.000430112
0.000449027
0.000468457
0.000488404
0.00050887
0.000529858
0.000551369
0.000573405
0.000595966
0.000619054
0.000642667
0.000666806
0.00069147
0.000716658
0.000742367
0.000768596
0.000795343
0.000822603
0.000850373
0.00087865
0.000907428
0.000936703
0.000966469
0.00099672
0.00102745
0.00105865
0.00109031
0.00112243
0.00115499
0.001188
0.00122143
0.00125527
0.00128953
0.00132417
0.00135921
0.00139461
0.00143037
0.00146647
0.00150291
0.00153966
0.00157672
0.00161406
0.00165167
0.00168954
0.00172764
0.00176596
0.00180449
0.0018432
0.00188208
0.00192111
0.00196027
0.00199953
0.00203888
0.00207831
0.00211778
0.00215728
0.00219678
0.00223628
0.00227573
0.00231513
0.00235444
0.00239366
0.00243274
0.00247168
0.00251046
0.00254903
0.00258739
0.00262552
0.00266338
0.00270096
0.00273822
0.00277516
0.00281175
0.00284796
0.00288377
0.00291916
0.00295411
0.00298859
0.00302258
0.00305607
0.00308902
0.00312142
0.00315326
0.0031845
0.00321512
0.00324512
0.00327446
0.00330313
0.00333111
0.00335839
0.00338494
0.00341074
0.0034358
0.00346007
0.00348356
0.00350624
0.00352811
0.00354914
0.00356933
0.00358866
0.00360712
0.0036247
0.00364139
0.00365719
0.00367207
0.00368604
0.00369908
0.00371119
0.00372236
0.00373259
0.00374188
0.00375021
0.00375759
0.00376401
0.00376947
0.00377398
0.00377752
0.00378011
0.00378174
0.00378241
0.00378215
0.00378095