/*--------------------------------*- C++ -*----------------------------------*\
  =========                 |
  \\      /  F ield         | OpenFOAM: The Open Source CFD Toolbox
   \\    /   O peration     | Website:  https://openfoam.org
    \\  /    A nd           | Version:  dev
     \\/     M anipulation  |
\*---------------------------------------------------------------------------*/
FoamFile
{
    format      ascii;
    class       volScalarField;
    location    "0.84";
    object      Exp1;
}
// * * * * * * * * * * * * * * * * * * * * * * * * * * * * * * * * * * * * * //

dimensions      [0 0 0 0 0 0 0];

internalField   uniform 0;

boundaryField
{
    frontAndBack
    {
        type            empty;
    }
    inlet
    {
        type            calculated;
        value           uniform 0;
    }
    outlet
    {
        type            calculated;
        value           uniform 0;
    }
    substrate
    {
        type            calculated;
        value           nonuniform List<scalar> 
400
(
5.8239e-21
1.85494e-20
3.25496e-20
4.7766e-20
6.42086e-20
8.19347e-20
1.01e-19
1.21464e-19
1.43391e-19
1.66853e-19
1.91926e-19
2.18689e-19
2.47226e-19
2.77621e-19
3.09961e-19
3.44337e-19
3.80838e-19
4.19558e-19
4.6059e-19
5.0403e-19
5.49976e-19
5.98526e-19
6.49781e-19
7.03843e-19
7.60818e-19
8.20811e-19
8.83933e-19
9.50294e-19
1.02001e-18
1.09319e-18
1.16996e-18
1.25045e-18
1.33476e-18
1.42304e-18
1.51541e-18
1.61201e-18
1.71297e-18
1.81843e-18
1.92854e-18
2.04344e-18
2.16329e-18
2.28823e-18
2.41843e-18
2.55405e-18
2.69526e-18
2.84222e-18
2.99512e-18
3.15413e-18
3.31943e-18
3.49121e-18
3.66968e-18
3.85503e-18
4.04745e-18
4.24717e-18
4.4544e-18
4.66936e-18
4.89228e-18
5.12339e-18
5.36294e-18
5.61116e-18
5.86831e-18
6.13466e-18
6.41047e-18
6.69601e-18
6.99157e-18
7.29745e-18
7.61393e-18
7.94133e-18
8.27996e-18
8.63015e-18
8.99224e-18
9.36656e-18
9.75347e-18
1.01533e-17
1.05665e-17
1.09934e-17
1.14344e-17
1.189e-17
1.23604e-17
1.28462e-17
1.33479e-17
1.38657e-17
1.44004e-17
1.49522e-17
1.55217e-17
1.61095e-17
1.6716e-17
1.73418e-17
1.79874e-17
1.86535e-17
1.93405e-17
2.00491e-17
2.078e-17
2.15338e-17
2.2311e-17
2.31125e-17
2.39388e-17
2.47908e-17
2.56691e-17
2.65746e-17
2.75079e-17
2.84699e-17
2.94614e-17
3.04833e-17
3.15365e-17
3.26218e-17
3.37401e-17
3.48925e-17
3.60798e-17
3.73032e-17
3.85636e-17
3.9862e-17
4.11997e-17
4.25776e-17
4.39971e-17
4.54592e-17
4.69652e-17
4.85163e-17
5.01138e-17
5.17591e-17
5.34536e-17
5.51985e-17
5.69955e-17
5.88459e-17
6.07513e-17
6.27133e-17
6.47335e-17
6.68135e-17
6.8955e-17
7.11599e-17
7.34299e-17
7.57668e-17
7.81727e-17
8.06493e-17
8.31989e-17
8.58233e-17
8.85248e-17
9.13055e-17
9.41677e-17
9.71138e-17
1.00146e-16
1.03267e-16
1.06479e-16
1.09784e-16
1.13186e-16
1.16687e-16
1.2029e-16
1.23998e-16
1.27814e-16
1.3174e-16
1.3578e-16
1.39937e-16
1.44214e-16
1.48615e-16
1.53144e-16
1.57803e-16
1.62596e-16
1.67528e-16
1.72602e-16
1.77822e-16
1.83192e-16
1.88716e-16
1.94399e-16
2.00246e-16
2.06259e-16
2.12445e-16
2.18808e-16
2.25353e-16
2.32085e-16
2.39009e-16
2.4613e-16
2.53455e-16
2.60988e-16
2.68735e-16
2.76703e-16
2.84897e-16
2.93324e-16
3.01989e-16
3.109e-16
3.20064e-16
3.29486e-16
3.39175e-16
3.49137e-16
3.59381e-16
3.69913e-16
3.80741e-16
3.91875e-16
4.03321e-16
4.15089e-16
4.27187e-16
4.39624e-16
4.52409e-16
4.65552e-16
4.79063e-16
4.92951e-16
5.07226e-16
5.21899e-16
5.36981e-16
5.52483e-16
5.68416e-16
5.84791e-16
6.0162e-16
6.18916e-16
6.3669e-16
6.54956e-16
6.73727e-16
6.93016e-16
7.12837e-16
7.33204e-16
7.54132e-16
7.75634e-16
7.97727e-16
8.20427e-16
8.43748e-16
8.67708e-16
8.92322e-16
9.1761e-16
9.43587e-16
9.70272e-16
9.97683e-16
1.02584e-15
1.05476e-15
1.08447e-15
1.11498e-15
1.14632e-15
1.1785e-15
1.21156e-15
1.2455e-15
1.28036e-15
1.31616e-15
1.35292e-15
1.39067e-15
1.42942e-15
1.46922e-15
1.51008e-15
1.55204e-15
1.59511e-15
1.63933e-15
1.68472e-15
1.73133e-15
1.77917e-15
1.82827e-15
1.87868e-15
1.93042e-15
1.98353e-15
2.03803e-15
2.09397e-15
2.15138e-15
2.2103e-15
2.27077e-15
2.33282e-15
2.39649e-15
2.46182e-15
2.52885e-15
2.59764e-15
2.6682e-15
2.74061e-15
2.81488e-15
2.89108e-15
2.96925e-15
3.04944e-15
3.1317e-15
3.21607e-15
3.3026e-15
3.39136e-15
3.48239e-15
3.57575e-15
3.67149e-15
3.76967e-15
3.87035e-15
3.97358e-15
4.07944e-15
4.18797e-15
4.29925e-15
4.41334e-15
4.5303e-15
4.65021e-15
4.77312e-15
4.89912e-15
5.02827e-15
5.16064e-15
5.29632e-15
5.43537e-15
5.57787e-15
5.72392e-15
5.87357e-15
6.02692e-15
6.18406e-15
6.34506e-15
6.51002e-15
6.67902e-15
6.85216e-15
7.02953e-15
7.21122e-15
7.39733e-15
7.58796e-15
7.78321e-15
7.98318e-15
8.18797e-15
8.39769e-15
8.61245e-15
8.83236e-15
9.05753e-15
9.28807e-15
9.5241e-15
9.76573e-15
1.00131e-14
1.02663e-14
1.05255e-14
1.07907e-14
1.10622e-14
1.13401e-14
1.16244e-14
1.19154e-14
1.22131e-14
1.25177e-14
1.28293e-14
1.31481e-14
1.34742e-14
1.38078e-14
1.4149e-14
1.44979e-14
1.48547e-14
1.52196e-14
1.55927e-14
1.59742e-14
1.63641e-14
1.67628e-14
1.71702e-14
1.75867e-14
1.80123e-14
1.84472e-14
1.88915e-14
1.93455e-14
1.98093e-14
2.0283e-14
2.07668e-14
2.12608e-14
2.17653e-14
2.22803e-14
2.2806e-14
2.33425e-14
2.389e-14
2.44487e-14
2.50186e-14
2.55999e-14
2.61927e-14
2.67971e-14
2.74133e-14
2.80413e-14
2.86811e-14
2.93329e-14
2.99968e-14
3.06727e-14
3.13607e-14
3.20608e-14
3.2773e-14
3.34973e-14
3.42336e-14
3.49817e-14
3.57417e-14
3.65133e-14
3.72963e-14
3.80906e-14
3.88958e-14
3.97117e-14
4.05379e-14
4.13738e-14
4.22191e-14
4.30733e-14
4.39355e-14
4.48052e-14
4.56815e-14
4.65636e-14
4.74503e-14
4.83406e-14
4.92333e-14
5.01268e-14
5.10198e-14
5.19104e-14
5.27968e-14
5.3677e-14
5.45486e-14
5.54091e-14
5.62557e-14
5.70855e-14
5.78951e-14
5.86808e-14
5.94389e-14
6.01649e-14
6.08542e-14
6.15017e-14
6.21022e-14
6.26496e-14
6.3138e-14
6.35609e-14
6.39115e-14
6.41833e-14
6.43697e-14
6.44651e-14
)
;
    }
    Wall
    {
        type            calculated;
        value           nonuniform List<scalar> 
400
(
5.82379e-21
1.8549e-20
3.2549e-20
4.7765e-20
6.42071e-20
8.19327e-20
1.00998e-19
1.2146e-19
1.43387e-19
1.66848e-19
1.9192e-19
2.18682e-19
2.47217e-19
2.7761e-19
3.0995e-19
3.44323e-19
3.80823e-19
4.19541e-19
4.60571e-19
5.0401e-19
5.49953e-19
5.98501e-19
6.49753e-19
7.03813e-19
7.60786e-19
8.20777e-19
8.83896e-19
9.50255e-19
1.01997e-18
1.09315e-18
1.16992e-18
1.2504e-18
1.33471e-18
1.42299e-18
1.51535e-18
1.61195e-18
1.7129e-18
1.81836e-18
1.92847e-18
2.04337e-18
2.16321e-18
2.28815e-18
2.41835e-18
2.55397e-18
2.69517e-18
2.84213e-18
2.99502e-18
3.15402e-18
3.31932e-18
3.4911e-18
3.66956e-18
3.8549e-18
4.04732e-18
4.24704e-18
4.45426e-18
4.66921e-18
4.89213e-18
5.12323e-18
5.36276e-18
5.61098e-18
5.86813e-18
6.13447e-18
6.41027e-18
6.6958e-18
6.99136e-18
7.29722e-18
7.6137e-18
7.94109e-18
8.27971e-18
8.6299e-18
8.99197e-18
9.36628e-18
9.75318e-18
1.0153e-17
1.05662e-17
1.09931e-17
1.14341e-17
1.18896e-17
1.23601e-17
1.28459e-17
1.33475e-17
1.38654e-17
1.44e-17
1.49518e-17
1.55213e-17
1.6109e-17
1.67155e-17
1.73413e-17
1.79869e-17
1.86529e-17
1.934e-17
2.00486e-17
2.07794e-17
2.15331e-17
2.23104e-17
2.31118e-17
2.39381e-17
2.47901e-17
2.56684e-17
2.65738e-17
2.75071e-17
2.84691e-17
2.94606e-17
3.04825e-17
3.15356e-17
3.26209e-17
3.37392e-17
3.48915e-17
3.60788e-17
3.73021e-17
3.85625e-17
3.98609e-17
4.11985e-17
4.25765e-17
4.39959e-17
4.54579e-17
4.69639e-17
4.85149e-17
5.01124e-17
5.17577e-17
5.34521e-17
5.5197e-17
5.69939e-17
5.88443e-17
6.07497e-17
6.27116e-17
6.47317e-17
6.68117e-17
6.89532e-17
7.1158e-17
7.34279e-17
7.57648e-17
7.81706e-17
8.06472e-17
8.31966e-17
8.5821e-17
8.85224e-17
9.13031e-17
9.41652e-17
9.71112e-17
1.00143e-16
1.03264e-16
1.06476e-16
1.09781e-16
1.13183e-16
1.16684e-16
1.20287e-16
1.23995e-16
1.2781e-16
1.31736e-16
1.35776e-16
1.39933e-16
1.4421e-16
1.48611e-16
1.5314e-16
1.57799e-16
1.62592e-16
1.67524e-16
1.72598e-16
1.77817e-16
1.83187e-16
1.88712e-16
1.94394e-16
2.0024e-16
2.06254e-16
2.1244e-16
2.18802e-16
2.25347e-16
2.32079e-16
2.39003e-16
2.46124e-16
2.53448e-16
2.60981e-16
2.68728e-16
2.76696e-16
2.8489e-16
2.93316e-16
3.01981e-16
3.10892e-16
3.20055e-16
3.29478e-16
3.39166e-16
3.49128e-16
3.59371e-16
3.69903e-16
3.80731e-16
3.91864e-16
4.0331e-16
4.15078e-16
4.27175e-16
4.39612e-16
4.52397e-16
4.6554e-16
4.7905e-16
4.92938e-16
5.07213e-16
5.21886e-16
5.36967e-16
5.52469e-16
5.68401e-16
5.84775e-16
6.01604e-16
6.18899e-16
6.36674e-16
6.54939e-16
6.7371e-16
6.92998e-16
7.12819e-16
7.33185e-16
7.54112e-16
7.75614e-16
7.97707e-16
8.20406e-16
8.43726e-16
8.67685e-16
8.923e-16
9.17586e-16
9.43563e-16
9.70247e-16
9.97658e-16
1.02581e-15
1.05474e-15
1.08444e-15
1.11495e-15
1.14629e-15
1.17847e-15
1.21152e-15
1.24547e-15
1.28033e-15
1.31613e-15
1.35288e-15
1.39063e-15
1.42939e-15
1.46918e-15
1.51004e-15
1.552e-15
1.59507e-15
1.63929e-15
1.68468e-15
1.73128e-15
1.77912e-15
1.82823e-15
1.87863e-15
1.93037e-15
1.98348e-15
2.03798e-15
2.09392e-15
2.15133e-15
2.21025e-15
2.27071e-15
2.33276e-15
2.39643e-15
2.46176e-15
2.52879e-15
2.59757e-15
2.66814e-15
2.74054e-15
2.81481e-15
2.89101e-15
2.96918e-15
3.04937e-15
3.13162e-15
3.21598e-15
3.30252e-15
3.39127e-15
3.4823e-15
3.57566e-15
3.67139e-15
3.76957e-15
3.87025e-15
3.97348e-15
4.07933e-15
4.18787e-15
4.29914e-15
4.41323e-15
4.53019e-15
4.65009e-15
4.773e-15
4.89899e-15
5.02814e-15
5.16051e-15
5.29618e-15
5.43523e-15
5.57773e-15
5.72377e-15
5.87342e-15
6.02677e-15
6.1839e-15
6.3449e-15
6.50985e-15
6.67885e-15
6.85199e-15
7.02935e-15
7.21104e-15
7.39714e-15
7.58777e-15
7.78301e-15
7.98298e-15
8.18776e-15
8.39748e-15
8.61224e-15
8.83214e-15
9.0573e-15
9.28783e-15
9.52386e-15
9.76548e-15
1.00128e-14
1.0266e-14
1.05252e-14
1.07905e-14
1.1062e-14
1.13398e-14
1.16241e-14
1.19151e-14
1.22128e-14
1.25174e-14
1.2829e-14
1.31478e-14
1.34739e-14
1.38074e-14
1.41486e-14
1.44975e-14
1.48544e-14
1.52192e-14
1.55923e-14
1.59738e-14
1.63637e-14
1.67624e-14
1.71698e-14
1.75863e-14
1.80118e-14
1.84467e-14
1.88911e-14
1.93451e-14
1.98088e-14
2.02825e-14
2.07663e-14
2.12603e-14
2.17648e-14
2.22797e-14
2.28054e-14
2.3342e-14
2.38895e-14
2.44481e-14
2.5018e-14
2.55993e-14
2.61921e-14
2.67965e-14
2.74127e-14
2.80406e-14
2.86804e-14
2.93322e-14
2.99961e-14
3.0672e-14
3.136e-14
3.20601e-14
3.27723e-14
3.34965e-14
3.42328e-14
3.49809e-14
3.57409e-14
3.65124e-14
3.72955e-14
3.80897e-14
3.8895e-14
3.97108e-14
4.05369e-14
4.13729e-14
4.22182e-14
4.30723e-14
4.39345e-14
4.48042e-14
4.56805e-14
4.65625e-14
4.74493e-14
4.83396e-14
4.92322e-14
5.01257e-14
5.10187e-14
5.19093e-14
5.27957e-14
5.36759e-14
5.45474e-14
5.54079e-14
5.62546e-14
5.70843e-14
5.78939e-14
5.86797e-14
5.94377e-14
6.01637e-14
6.0853e-14
6.15006e-14
6.2101e-14
6.26485e-14
6.31369e-14
6.35597e-14
6.39104e-14
6.41823e-14
6.43688e-14
6.44642e-14
)
;
    }
}


// ************************************************************************* //
