/*--------------------------------*- C++ -*----------------------------------*\
  =========                 |
  \\      /  F ield         | OpenFOAM: The Open Source CFD Toolbox
   \\    /   O peration     | Website:  https://openfoam.org
    \\  /    A nd           | Version:  dev
     \\/     M anipulation  |
\*---------------------------------------------------------------------------*/
FoamFile
{
    format      ascii;
    class       volScalarField;
    location    "0.84";
    object      N1;
}
// * * * * * * * * * * * * * * * * * * * * * * * * * * * * * * * * * * * * * //

dimensions      [0 0 0 0 0 0 0];

internalField   nonuniform List<scalar> 
8000
(
4.42178e-20
1.40871e-19
2.47239e-19
3.6288e-19
4.87873e-19
6.22655e-19
7.67653e-19
9.23316e-19
1.09015e-18
1.26869e-18
1.45953e-18
1.66328e-18
1.88057e-18
2.11205e-18
2.35839e-18
2.62029e-18
2.89843e-18
3.19352e-18
3.5063e-18
3.83749e-18
4.18784e-18
4.55812e-18
4.9491e-18
5.36156e-18
5.79631e-18
6.25418e-18
6.73601e-18
7.24264e-18
7.77496e-18
8.33387e-18
8.92027e-18
9.53511e-18
1.01793e-17
1.0854e-17
1.15599e-17
1.22983e-17
1.30702e-17
1.38766e-17
1.47187e-17
1.55975e-17
1.65143e-17
1.74702e-17
1.84665e-17
1.95044e-17
2.05852e-17
2.17101e-17
2.28807e-17
2.40982e-17
2.5364e-17
2.66796e-17
2.80466e-17
2.94664e-17
3.09406e-17
3.24709e-17
3.40589e-17
3.57063e-17
3.74149e-17
3.91864e-17
4.10227e-17
4.29258e-17
4.48975e-17
4.69399e-17
4.9055e-17
5.1245e-17
5.35121e-17
5.58584e-17
5.82863e-17
6.07981e-17
6.33963e-17
6.60834e-17
6.8862e-17
7.17346e-17
7.47041e-17
7.77732e-17
8.09447e-17
8.42218e-17
8.76073e-17
9.11045e-17
9.47166e-17
9.84468e-17
1.02299e-16
1.06275e-16
1.10381e-16
1.14619e-16
1.18993e-16
1.23507e-16
1.28166e-16
1.32972e-16
1.37932e-16
1.43048e-16
1.48326e-16
1.5377e-16
1.59385e-16
1.65176e-16
1.71148e-16
1.77306e-16
1.83655e-16
1.90202e-16
1.96951e-16
2.03909e-16
2.11081e-16
2.18474e-16
2.26094e-16
2.33948e-16
2.42042e-16
2.50383e-16
2.58978e-16
2.67835e-16
2.76961e-16
2.86364e-16
2.96052e-16
3.06033e-16
3.16315e-16
3.26908e-16
3.37819e-16
3.49058e-16
3.60635e-16
3.72559e-16
3.8484e-16
3.97489e-16
4.10515e-16
4.2393e-16
4.37745e-16
4.51971e-16
4.6662e-16
4.81704e-16
4.97236e-16
5.13228e-16
5.29693e-16
5.46646e-16
5.64099e-16
5.82067e-16
6.00565e-16
6.19608e-16
6.39211e-16
6.5939e-16
6.80162e-16
7.01543e-16
7.23551e-16
7.46204e-16
7.69519e-16
7.93516e-16
8.18214e-16
8.43633e-16
8.69792e-16
8.96714e-16
9.24419e-16
9.5293e-16
9.82269e-16
1.01246e-15
1.04353e-15
1.07549e-15
1.10839e-15
1.14223e-15
1.17705e-15
1.21288e-15
1.24974e-15
1.28767e-15
1.32669e-15
1.36683e-15
1.40812e-15
1.45061e-15
1.49431e-15
1.53927e-15
1.58551e-15
1.63308e-15
1.68202e-15
1.73235e-15
1.78412e-15
1.83736e-15
1.89213e-15
1.94846e-15
2.00639e-15
2.06597e-15
2.12725e-15
2.19026e-15
2.25506e-15
2.32171e-15
2.39023e-15
2.4607e-15
2.53317e-15
2.60768e-15
2.68429e-15
2.76307e-15
2.84407e-15
2.92734e-15
3.01296e-15
3.10099e-15
3.19149e-15
3.28453e-15
3.38018e-15
3.47851e-15
3.57958e-15
3.68349e-15
3.79029e-15
3.90008e-15
4.01293e-15
4.12892e-15
4.24813e-15
4.37067e-15
4.4966e-15
4.62603e-15
4.75904e-15
4.89574e-15
5.03622e-15
5.18058e-15
5.32892e-15
5.48136e-15
5.638e-15
5.79894e-15
5.96431e-15
6.13423e-15
6.3088e-15
6.48816e-15
6.67242e-15
6.86173e-15
7.0562e-15
7.25599e-15
7.46121e-15
7.67203e-15
7.88858e-15
8.11101e-15
8.33947e-15
8.57413e-15
8.81513e-15
9.06266e-15
9.31687e-15
9.57793e-15
9.84603e-15
1.01213e-14
1.04041e-14
1.06944e-14
1.09924e-14
1.12985e-14
1.16128e-14
1.19354e-14
1.22667e-14
1.26068e-14
1.29559e-14
1.33143e-14
1.36822e-14
1.40599e-14
1.44476e-14
1.48455e-14
1.52539e-14
1.56731e-14
1.61033e-14
1.65449e-14
1.6998e-14
1.74631e-14
1.79402e-14
1.84299e-14
1.89324e-14
1.94479e-14
1.99769e-14
2.05197e-14
2.10765e-14
2.16477e-14
2.22338e-14
2.2835e-14
2.34517e-14
2.40843e-14
2.47332e-14
2.53987e-14
2.60813e-14
2.67814e-14
2.74994e-14
2.82357e-14
2.89908e-14
2.97651e-14
3.05591e-14
3.13732e-14
3.22079e-14
3.30638e-14
3.39412e-14
3.48407e-14
3.57629e-14
3.67082e-14
3.76772e-14
3.86705e-14
3.96886e-14
4.0732e-14
4.18014e-14
4.28974e-14
4.40206e-14
4.51716e-14
4.6351e-14
4.75595e-14
4.87978e-14
5.00664e-14
5.13662e-14
5.26978e-14
5.40619e-14
5.54593e-14
5.68906e-14
5.83567e-14
5.98583e-14
6.13962e-14
6.29713e-14
6.45842e-14
6.62359e-14
6.79272e-14
6.96589e-14
7.1432e-14
7.32472e-14
7.51056e-14
7.7008e-14
7.89553e-14
8.09486e-14
8.29888e-14
8.50768e-14
8.72137e-14
8.94005e-14
9.16382e-14
9.39278e-14
9.62704e-14
9.86671e-14
1.01119e-13
1.03627e-13
1.06192e-13
1.08816e-13
1.115e-13
1.14244e-13
1.17051e-13
1.1992e-13
1.22854e-13
1.25853e-13
1.28919e-13
1.32052e-13
1.35255e-13
1.38529e-13
1.41873e-13
1.45291e-13
1.48782e-13
1.52349e-13
1.55992e-13
1.59713e-13
1.63513e-13
1.67392e-13
1.71353e-13
1.75396e-13
1.79523e-13
1.83734e-13
1.8803e-13
1.92413e-13
1.96884e-13
2.01443e-13
2.06092e-13
2.1083e-13
2.1566e-13
2.20581e-13
2.25594e-13
2.307e-13
2.35898e-13
2.41189e-13
2.46574e-13
2.52051e-13
2.57622e-13
2.63284e-13
2.69038e-13
2.74883e-13
2.80817e-13
2.86839e-13
2.92948e-13
2.99141e-13
3.05416e-13
3.11769e-13
3.18199e-13
3.247e-13
3.31269e-13
3.379e-13
3.44589e-13
3.51329e-13
3.58112e-13
3.64932e-13
3.71779e-13
3.78644e-13
3.85517e-13
3.92384e-13
3.99234e-13
4.06052e-13
4.12821e-13
4.19524e-13
4.26142e-13
4.32653e-13
4.39035e-13
4.45261e-13
4.51304e-13
4.57134e-13
4.62718e-13
4.68019e-13
4.73e-13
4.77617e-13
4.81828e-13
4.85584e-13
4.88836e-13
4.91533e-13
4.93623e-13
4.95057e-13
4.9579e-13
4.33163e-20
1.38863e-19
2.44334e-19
3.5958e-19
4.84592e-19
6.19662e-19
7.65166e-19
9.21535e-19
1.08927e-18
1.2689e-18
1.46104e-18
1.6663e-18
1.88532e-18
2.11877e-18
2.36734e-18
2.63172e-18
2.91265e-18
3.21083e-18
3.52703e-18
3.86198e-18
4.21646e-18
4.59125e-18
4.98715e-18
5.40497e-18
5.84555e-18
6.30972e-18
6.79835e-18
7.31233e-18
7.85257e-18
8.41997e-18
9.0155e-18
9.64012e-18
1.02948e-17
1.09806e-17
1.16985e-17
1.24497e-17
1.32351e-17
1.40559e-17
1.49132e-17
1.58083e-17
1.67422e-17
1.77163e-17
1.87319e-17
1.97901e-17
2.08923e-17
2.204e-17
2.32344e-17
2.4477e-17
2.57693e-17
2.71127e-17
2.85089e-17
2.99594e-17
3.14659e-17
3.30299e-17
3.46533e-17
3.63378e-17
3.80852e-17
3.98973e-17
4.17761e-17
4.37235e-17
4.57416e-17
4.78324e-17
4.9998e-17
5.22407e-17
5.45627e-17
5.69662e-17
5.94537e-17
6.20276e-17
6.46904e-17
6.74447e-17
7.02932e-17
7.32385e-17
7.62835e-17
7.94311e-17
8.26842e-17
8.60459e-17
8.95193e-17
9.31077e-17
9.68143e-17
1.00643e-16
1.04596e-16
1.08678e-16
1.12893e-16
1.17244e-16
1.21736e-16
1.26371e-16
1.31156e-16
1.36093e-16
1.41187e-16
1.46443e-16
1.51865e-16
1.57458e-16
1.63227e-16
1.69178e-16
1.75314e-16
1.81643e-16
1.88169e-16
1.94897e-16
2.01835e-16
2.08987e-16
2.1636e-16
2.2396e-16
2.31794e-16
2.39869e-16
2.48191e-16
2.56768e-16
2.65607e-16
2.74715e-16
2.841e-16
2.9377e-16
3.03734e-16
3.13999e-16
3.24575e-16
3.3547e-16
3.46694e-16
3.58255e-16
3.70164e-16
3.8243e-16
3.95065e-16
4.08077e-16
4.21479e-16
4.35281e-16
4.49494e-16
4.64132e-16
4.79204e-16
4.94725e-16
5.10707e-16
5.27162e-16
5.44105e-16
5.6155e-16
5.7951e-16
5.98e-16
6.17036e-16
6.36633e-16
6.56807e-16
6.77575e-16
6.98953e-16
7.20958e-16
7.43608e-16
7.66923e-16
7.9092e-16
8.15618e-16
8.41039e-16
8.67201e-16
8.94127e-16
9.21837e-16
9.50354e-16
9.79701e-16
1.0099e-15
1.04098e-15
1.07296e-15
1.10586e-15
1.13972e-15
1.17456e-15
1.21041e-15
1.24729e-15
1.28523e-15
1.32427e-15
1.36444e-15
1.40576e-15
1.44828e-15
1.49201e-15
1.537e-15
1.58328e-15
1.63089e-15
1.67987e-15
1.73024e-15
1.78206e-15
1.83535e-15
1.89017e-15
1.94656e-15
2.00455e-15
2.06419e-15
2.12553e-15
2.18862e-15
2.25349e-15
2.32021e-15
2.38882e-15
2.45938e-15
2.53193e-15
2.60654e-15
2.68326e-15
2.76214e-15
2.84325e-15
2.92664e-15
3.01238e-15
3.10054e-15
3.19117e-15
3.28435e-15
3.38015e-15
3.47863e-15
3.57987e-15
3.68395e-15
3.79093e-15
3.9009e-15
4.01394e-15
4.13014e-15
4.24957e-15
4.37232e-15
4.49849e-15
4.62816e-15
4.76143e-15
4.89839e-15
5.03915e-15
5.1838e-15
5.33244e-15
5.48519e-15
5.64216e-15
5.80345e-15
5.96917e-15
6.13946e-15
6.31442e-15
6.49418e-15
6.67887e-15
6.86861e-15
7.06355e-15
7.26381e-15
7.46953e-15
7.68086e-15
7.89795e-15
8.12093e-15
8.34998e-15
8.58524e-15
8.82688e-15
9.07506e-15
9.32995e-15
9.59173e-15
9.86057e-15
1.01367e-14
1.04202e-14
1.07113e-14
1.10102e-14
1.13172e-14
1.16324e-14
1.1956e-14
1.22883e-14
1.26294e-14
1.29796e-14
1.33392e-14
1.37083e-14
1.40872e-14
1.44761e-14
1.48753e-14
1.52851e-14
1.57057e-14
1.61374e-14
1.65805e-14
1.70352e-14
1.75019e-14
1.79808e-14
1.84722e-14
1.89765e-14
1.9494e-14
2.00249e-14
2.05697e-14
2.11287e-14
2.17021e-14
2.22905e-14
2.2894e-14
2.35132e-14
2.41483e-14
2.47998e-14
2.54681e-14
2.61535e-14
2.68566e-14
2.75776e-14
2.83171e-14
2.90754e-14
2.98531e-14
3.06506e-14
3.14683e-14
3.23068e-14
3.31665e-14
3.40479e-14
3.49516e-14
3.58781e-14
3.68279e-14
3.78015e-14
3.87996e-14
3.98226e-14
4.08712e-14
4.19459e-14
4.30474e-14
4.41762e-14
4.53331e-14
4.65185e-14
4.77333e-14
4.89781e-14
5.02535e-14
5.15602e-14
5.2899e-14
5.42705e-14
5.56756e-14
5.71149e-14
5.85892e-14
6.00993e-14
6.1646e-14
6.32301e-14
6.48525e-14
6.65139e-14
6.82152e-14
6.99573e-14
7.17411e-14
7.35674e-14
7.54373e-14
7.73515e-14
7.93111e-14
8.13171e-14
8.33703e-14
8.54719e-14
8.76228e-14
8.9824e-14
9.20766e-14
9.43817e-14
9.67402e-14
9.91534e-14
1.01622e-13
1.04148e-13
1.06732e-13
1.09374e-13
1.12078e-13
1.14842e-13
1.17669e-13
1.2056e-13
1.23516e-13
1.26538e-13
1.29628e-13
1.32787e-13
1.36015e-13
1.39315e-13
1.42687e-13
1.46133e-13
1.49654e-13
1.53251e-13
1.56926e-13
1.60679e-13
1.64513e-13
1.68427e-13
1.72424e-13
1.76505e-13
1.80671e-13
1.84923e-13
1.89262e-13
1.93689e-13
1.98205e-13
2.02812e-13
2.07509e-13
2.12299e-13
2.17182e-13
2.22159e-13
2.2723e-13
2.32396e-13
2.37658e-13
2.43015e-13
2.48468e-13
2.54018e-13
2.59663e-13
2.65404e-13
2.71241e-13
2.77171e-13
2.83196e-13
2.89313e-13
2.95521e-13
3.01819e-13
3.08203e-13
3.14673e-13
3.21224e-13
3.27853e-13
3.34557e-13
3.41331e-13
3.48171e-13
3.5507e-13
3.62022e-13
3.6902e-13
3.76056e-13
3.83121e-13
3.90206e-13
3.97299e-13
4.04388e-13
4.1146e-13
4.185e-13
4.25491e-13
4.32416e-13
4.39255e-13
4.45986e-13
4.52585e-13
4.59026e-13
4.6528e-13
4.71317e-13
4.77102e-13
4.82599e-13
4.87767e-13
4.92564e-13
4.96944e-13
5.00856e-13
5.0425e-13
5.07072e-13
5.09266e-13
5.10777e-13
5.11556e-13
4.25053e-20
1.36366e-19
2.39881e-19
3.53355e-19
4.76956e-19
6.10927e-19
7.55596e-19
9.11363e-19
1.0787e-18
1.25815e-18
1.45028e-18
1.65572e-18
1.87512e-18
2.10915e-18
2.35851e-18
2.6239e-18
2.90605e-18
3.20571e-18
3.52362e-18
3.86056e-18
4.21731e-18
4.59467e-18
4.99345e-18
5.41449e-18
5.85863e-18
6.32675e-18
6.81972e-18
7.33846e-18
7.88389e-18
8.45696e-18
9.05864e-18
9.68993e-18
1.03518e-17
1.10454e-17
1.17717e-17
1.25318e-17
1.33269e-17
1.4158e-17
1.50264e-17
1.59333e-17
1.68798e-17
1.78673e-17
1.88971e-17
1.99704e-17
2.10887e-17
2.22534e-17
2.34658e-17
2.47274e-17
2.60398e-17
2.74045e-17
2.8823e-17
3.02971e-17
3.18284e-17
3.34185e-17
3.50693e-17
3.67826e-17
3.85602e-17
4.0404e-17
4.23161e-17
4.42983e-17
4.63528e-17
4.84817e-17
5.06872e-17
5.29715e-17
5.53369e-17
5.77858e-17
6.03207e-17
6.29439e-17
6.56582e-17
6.84662e-17
7.13705e-17
7.4374e-17
7.74795e-17
8.069e-17
8.40086e-17
8.74383e-17
9.09824e-17
9.46442e-17
9.84271e-17
1.02335e-16
1.0637e-16
1.10538e-16
1.14841e-16
1.19284e-16
1.2387e-16
1.28604e-16
1.33491e-16
1.38533e-16
1.43737e-16
1.49106e-16
1.54646e-16
1.6036e-16
1.66255e-16
1.72336e-16
1.78607e-16
1.85075e-16
1.91744e-16
1.98621e-16
2.05713e-16
2.13024e-16
2.20561e-16
2.28331e-16
2.3634e-16
2.44596e-16
2.53105e-16
2.61875e-16
2.70913e-16
2.80227e-16
2.89824e-16
2.99714e-16
3.09904e-16
3.20403e-16
3.3122e-16
3.42363e-16
3.53843e-16
3.65669e-16
3.77851e-16
3.90399e-16
4.03324e-16
4.16636e-16
4.30346e-16
4.44466e-16
4.59008e-16
4.73984e-16
4.89405e-16
5.05285e-16
5.21637e-16
5.38475e-16
5.55811e-16
5.73661e-16
5.92039e-16
6.1096e-16
6.3044e-16
6.50494e-16
6.71139e-16
6.92391e-16
7.14269e-16
7.36789e-16
7.5997e-16
7.8383e-16
8.08389e-16
8.33667e-16
8.59684e-16
8.8646e-16
9.14019e-16
9.4238e-16
9.71568e-16
1.00161e-15
1.03252e-15
1.06432e-15
1.09706e-15
1.13074e-15
1.16539e-15
1.20106e-15
1.23775e-15
1.2755e-15
1.31434e-15
1.35431e-15
1.39542e-15
1.43772e-15
1.48124e-15
1.52601e-15
1.57207e-15
1.61945e-15
1.66818e-15
1.71832e-15
1.76989e-15
1.82293e-15
1.87749e-15
1.93361e-15
1.99134e-15
2.0507e-15
2.11176e-15
2.17456e-15
2.23915e-15
2.30557e-15
2.37387e-15
2.44411e-15
2.51635e-15
2.59063e-15
2.66701e-15
2.74556e-15
2.82632e-15
2.90936e-15
2.99474e-15
3.08253e-15
3.17278e-15
3.26558e-15
3.36098e-15
3.45906e-15
3.5599e-15
3.66355e-15
3.77011e-15
3.87965e-15
3.99225e-15
4.10799e-15
4.22696e-15
4.34925e-15
4.47494e-15
4.60412e-15
4.7369e-15
4.87335e-15
5.01359e-15
5.15772e-15
5.30583e-15
5.45804e-15
5.61445e-15
5.77517e-15
5.94032e-15
6.11002e-15
6.28439e-15
6.46355e-15
6.64762e-15
6.83674e-15
7.03103e-15
7.23065e-15
7.43571e-15
7.64637e-15
7.86278e-15
8.08508e-15
8.31342e-15
8.54798e-15
8.78889e-15
9.03634e-15
9.29049e-15
9.55151e-15
9.81958e-15
1.00949e-14
1.03776e-14
1.0668e-14
1.09661e-14
1.12722e-14
1.15866e-14
1.19094e-14
1.22408e-14
1.25811e-14
1.29304e-14
1.32891e-14
1.36573e-14
1.40353e-14
1.44233e-14
1.48217e-14
1.52305e-14
1.56502e-14
1.6081e-14
1.65231e-14
1.69769e-14
1.74426e-14
1.79205e-14
1.8411e-14
1.89143e-14
1.94308e-14
1.99608e-14
2.05046e-14
2.10626e-14
2.16351e-14
2.22224e-14
2.2825e-14
2.34432e-14
2.40773e-14
2.47279e-14
2.53952e-14
2.60796e-14
2.67817e-14
2.75018e-14
2.82403e-14
2.89977e-14
2.97745e-14
3.0571e-14
3.13879e-14
3.22255e-14
3.30843e-14
3.3965e-14
3.48678e-14
3.57935e-14
3.67425e-14
3.77154e-14
3.87128e-14
3.97351e-14
4.0783e-14
4.18571e-14
4.29581e-14
4.40864e-14
4.52427e-14
4.64278e-14
4.76422e-14
4.88866e-14
5.01617e-14
5.14683e-14
5.28069e-14
5.41784e-14
5.55834e-14
5.70228e-14
5.84973e-14
6.00077e-14
6.15547e-14
6.31393e-14
6.47622e-14
6.64242e-14
6.81263e-14
6.98693e-14
7.16541e-14
7.34816e-14
7.53527e-14
7.72684e-14
7.92296e-14
8.12374e-14
8.32925e-14
8.53962e-14
8.75494e-14
8.97532e-14
9.20085e-14
9.43165e-14
9.66783e-14
9.90949e-14
1.01567e-13
1.04097e-13
1.06685e-13
1.09332e-13
1.1204e-13
1.1481e-13
1.17643e-13
1.2054e-13
1.23502e-13
1.26531e-13
1.29628e-13
1.32794e-13
1.36031e-13
1.3934e-13
1.42721e-13
1.46177e-13
1.49708e-13
1.53316e-13
1.57003e-13
1.60769e-13
1.64616e-13
1.68545e-13
1.72557e-13
1.76654e-13
1.80836e-13
1.85106e-13
1.89464e-13
1.93911e-13
1.98449e-13
2.03078e-13
2.07801e-13
2.12616e-13
2.17527e-13
2.22533e-13
2.27635e-13
2.32834e-13
2.3813e-13
2.43525e-13
2.49018e-13
2.5461e-13
2.603e-13
2.66089e-13
2.71977e-13
2.77962e-13
2.84045e-13
2.90225e-13
2.96499e-13
3.02868e-13
3.09328e-13
3.15879e-13
3.22517e-13
3.29239e-13
3.36042e-13
3.42923e-13
3.49877e-13
3.56898e-13
3.63981e-13
3.7112e-13
3.78307e-13
3.85535e-13
3.92794e-13
4.00074e-13
4.07365e-13
4.14653e-13
4.21926e-13
4.29168e-13
4.36363e-13
4.43492e-13
4.50536e-13
4.57471e-13
4.64275e-13
4.70919e-13
4.77376e-13
4.83614e-13
4.89598e-13
4.95289e-13
5.00648e-13
5.0563e-13
5.10187e-13
5.14269e-13
5.17819e-13
5.20781e-13
5.23095e-13
5.24699e-13
5.25531e-13
4.16987e-20
1.3375e-19
2.35112e-19
3.46313e-19
4.6773e-19
5.9969e-19
7.42549e-19
8.96714e-19
1.06265e-18
1.2409e-18
1.43201e-18
1.63662e-18
1.85537e-18
2.08892e-18
2.33798e-18
2.60325e-18
2.88547e-18
3.18538e-18
3.50375e-18
3.84134e-18
4.19897e-18
4.57742e-18
4.97755e-18
5.40018e-18
5.84618e-18
6.31644e-18
6.81185e-18
7.33336e-18
7.88188e-18
8.45841e-18
9.06392e-18
9.69944e-18
1.0366e-17
1.10647e-17
1.17965e-17
1.25627e-17
1.33643e-17
1.42025e-17
1.50786e-17
1.59937e-17
1.69491e-17
1.79461e-17
1.89861e-17
2.00704e-17
2.12003e-17
2.23773e-17
2.36029e-17
2.48785e-17
2.62058e-17
2.75863e-17
2.90215e-17
3.05133e-17
3.20632e-17
3.36731e-17
3.53447e-17
3.70798e-17
3.88805e-17
4.07485e-17
4.2686e-17
4.4695e-17
4.67776e-17
4.89359e-17
5.11722e-17
5.34888e-17
5.5888e-17
5.83722e-17
6.0944e-17
6.36059e-17
6.63605e-17
6.92105e-17
7.21586e-17
7.52078e-17
7.8361e-17
8.16211e-17
8.49914e-17
8.84749e-17
9.20749e-17
9.57949e-17
9.96383e-17
1.03609e-16
1.0771e-16
1.11945e-16
1.16319e-16
1.20834e-16
1.25497e-16
1.30309e-16
1.35277e-16
1.40404e-16
1.45696e-16
1.51155e-16
1.56789e-16
1.62601e-16
1.68597e-16
1.74782e-16
1.81161e-16
1.8774e-16
1.94526e-16
2.01522e-16
2.08737e-16
2.16176e-16
2.23846e-16
2.31752e-16
2.39903e-16
2.48305e-16
2.56964e-16
2.6589e-16
2.75089e-16
2.84569e-16
2.94338e-16
3.04405e-16
3.14778e-16
3.25466e-16
3.36478e-16
3.47823e-16
3.5951e-16
3.7155e-16
3.83953e-16
3.96729e-16
4.09889e-16
4.23444e-16
4.37404e-16
4.51783e-16
4.66591e-16
4.8184e-16
4.97545e-16
5.13717e-16
5.30369e-16
5.47517e-16
5.65173e-16
5.83352e-16
6.02069e-16
6.2134e-16
6.4118e-16
6.61606e-16
6.82633e-16
7.0428e-16
7.26564e-16
7.49502e-16
7.73114e-16
7.97419e-16
8.22435e-16
8.48184e-16
8.74686e-16
9.01963e-16
9.30036e-16
9.58928e-16
9.88661e-16
1.01926e-15
1.05075e-15
1.08315e-15
1.1165e-15
1.15081e-15
1.18612e-15
1.22245e-15
1.25983e-15
1.2983e-15
1.33787e-15
1.37859e-15
1.42048e-15
1.46357e-15
1.50791e-15
1.55352e-15
1.60045e-15
1.64872e-15
1.69838e-15
1.74946e-15
1.802e-15
1.85605e-15
1.91164e-15
1.96883e-15
2.02764e-15
2.08813e-15
2.15035e-15
2.21434e-15
2.28015e-15
2.34782e-15
2.41743e-15
2.489e-15
2.56261e-15
2.6383e-15
2.71613e-15
2.79617e-15
2.87846e-15
2.96308e-15
3.05009e-15
3.13955e-15
3.23152e-15
3.32608e-15
3.4233e-15
3.52325e-15
3.62601e-15
3.73164e-15
3.84023e-15
3.95186e-15
4.06661e-15
4.18456e-15
4.3058e-15
4.43042e-15
4.55851e-15
4.69017e-15
4.82548e-15
4.96454e-15
5.10747e-15
5.25435e-15
5.4053e-15
5.56042e-15
5.71982e-15
5.88363e-15
6.05195e-15
6.2249e-15
6.40261e-15
6.5852e-15
6.77281e-15
6.96555e-15
7.16358e-15
7.36703e-15
7.57603e-15
7.79074e-15
8.01131e-15
8.23788e-15
8.47062e-15
8.70968e-15
8.95524e-15
9.20745e-15
9.46649e-15
9.73254e-15
1.00058e-14
1.02864e-14
1.05746e-14
1.08705e-14
1.11744e-14
1.14865e-14
1.18069e-14
1.21359e-14
1.24737e-14
1.28206e-14
1.31767e-14
1.35423e-14
1.39176e-14
1.43029e-14
1.46985e-14
1.51045e-14
1.55213e-14
1.59491e-14
1.63882e-14
1.68389e-14
1.73015e-14
1.77763e-14
1.82635e-14
1.87635e-14
1.92766e-14
1.98031e-14
2.03434e-14
2.08978e-14
2.14666e-14
2.20502e-14
2.2649e-14
2.32633e-14
2.38935e-14
2.454e-14
2.52032e-14
2.58835e-14
2.65813e-14
2.72971e-14
2.80312e-14
2.87842e-14
2.95564e-14
3.03483e-14
3.11605e-14
3.19933e-14
3.28473e-14
3.37229e-14
3.46208e-14
3.55413e-14
3.64851e-14
3.74527e-14
3.84447e-14
3.94616e-14
4.0504e-14
4.15725e-14
4.26677e-14
4.37902e-14
4.49407e-14
4.61198e-14
4.73282e-14
4.85665e-14
4.98354e-14
5.11356e-14
5.24679e-14
5.38329e-14
5.52314e-14
5.66642e-14
5.81319e-14
5.96355e-14
6.11757e-14
6.27533e-14
6.43692e-14
6.60242e-14
6.77191e-14
6.94549e-14
7.12324e-14
7.30525e-14
7.49162e-14
7.68245e-14
7.87782e-14
8.07783e-14
8.28259e-14
8.49219e-14
8.70674e-14
8.92634e-14
9.1511e-14
9.38112e-14
9.61652e-14
9.8574e-14
1.01039e-13
1.03561e-13
1.06141e-13
1.08781e-13
1.11481e-13
1.14243e-13
1.17068e-13
1.19958e-13
1.22913e-13
1.25934e-13
1.29024e-13
1.32183e-13
1.35413e-13
1.38715e-13
1.4209e-13
1.45539e-13
1.49065e-13
1.52667e-13
1.56349e-13
1.6011e-13
1.63952e-13
1.67876e-13
1.71885e-13
1.75979e-13
1.80159e-13
1.84426e-13
1.88783e-13
1.9323e-13
1.97768e-13
2.02398e-13
2.07123e-13
2.11941e-13
2.16856e-13
2.21868e-13
2.26977e-13
2.32184e-13
2.3749e-13
2.42897e-13
2.48403e-13
2.54011e-13
2.59719e-13
2.65529e-13
2.71439e-13
2.77451e-13
2.83562e-13
2.89774e-13
2.96085e-13
3.02493e-13
3.08998e-13
3.15597e-13
3.22289e-13
3.29071e-13
3.3594e-13
3.42892e-13
3.49924e-13
3.57032e-13
3.6421e-13
3.71453e-13
3.78754e-13
3.86105e-13
3.935e-13
4.00928e-13
4.0838e-13
4.15844e-13
4.23309e-13
4.3076e-13
4.38182e-13
4.45559e-13
4.52872e-13
4.601e-13
4.67223e-13
4.74214e-13
4.81047e-13
4.87693e-13
4.9412e-13
5.00291e-13
5.0617e-13
5.11714e-13
5.16878e-13
5.21612e-13
5.25863e-13
5.29573e-13
5.32681e-13
5.35121e-13
5.36822e-13
5.37712e-13
4.0937e-20
1.31267e-19
2.30594e-19
3.39499e-19
4.585e-19
5.88045e-19
7.2857e-19
8.80533e-19
1.04443e-18
1.2208e-18
1.41021e-18
1.61329e-18
1.83067e-18
2.06303e-18
2.31104e-18
2.57543e-18
2.85692e-18
3.15626e-18
3.4742e-18
3.81154e-18
4.16906e-18
4.54759e-18
4.94797e-18
5.37104e-18
5.81768e-18
6.28879e-18
6.78528e-18
7.30809e-18
7.85818e-18
8.43654e-18
9.04417e-18
9.6821e-18
1.03514e-17
1.10531e-17
1.17884e-17
1.25584e-17
1.33642e-17
1.4207e-17
1.50881e-17
1.60087e-17
1.69702e-17
1.79737e-17
1.90207e-17
2.01125e-17
2.12505e-17
2.24363e-17
2.36713e-17
2.49569e-17
2.62949e-17
2.76868e-17
2.91342e-17
3.06388e-17
3.22024e-17
3.38268e-17
3.55137e-17
3.72651e-17
3.9083e-17
4.09691e-17
4.29257e-17
4.49548e-17
4.70585e-17
4.92391e-17
5.14987e-17
5.38398e-17
5.62648e-17
5.8776e-17
6.1376e-17
6.40675e-17
6.6853e-17
6.97353e-17
7.27172e-17
7.58017e-17
7.89917e-17
8.22902e-17
8.57005e-17
8.92257e-17
9.28692e-17
9.66344e-17
1.00525e-16
1.04544e-16
1.08696e-16
1.12984e-16
1.17413e-16
1.21986e-16
1.26708e-16
1.31582e-16
1.36614e-16
1.41807e-16
1.47167e-16
1.52699e-16
1.58406e-16
1.64295e-16
1.7037e-16
1.76637e-16
1.83102e-16
1.89769e-16
1.96646e-16
2.03737e-16
2.1105e-16
2.1859e-16
2.26364e-16
2.34379e-16
2.42641e-16
2.51159e-16
2.59938e-16
2.68987e-16
2.78314e-16
2.87926e-16
2.97831e-16
3.08039e-16
3.18557e-16
3.29395e-16
3.40562e-16
3.52067e-16
3.63919e-16
3.7613e-16
3.88709e-16
4.01667e-16
4.15014e-16
4.28761e-16
4.42921e-16
4.57505e-16
4.72525e-16
4.87994e-16
5.03924e-16
5.20328e-16
5.37221e-16
5.54615e-16
5.72526e-16
5.90968e-16
6.09957e-16
6.29507e-16
6.49635e-16
6.70357e-16
6.9169e-16
7.13652e-16
7.3626e-16
7.59533e-16
7.83489e-16
8.08149e-16
8.33531e-16
8.59657e-16
8.86547e-16
9.14223e-16
9.42708e-16
9.72024e-16
1.00219e-15
1.03324e-15
1.0652e-15
1.09808e-15
1.13191e-15
1.16673e-15
1.20256e-15
1.23943e-15
1.27736e-15
1.31639e-15
1.35655e-15
1.39787e-15
1.44038e-15
1.48412e-15
1.52911e-15
1.5754e-15
1.62302e-15
1.67201e-15
1.72241e-15
1.77425e-15
1.82757e-15
1.88242e-15
1.93884e-15
1.99688e-15
2.05657e-15
2.11796e-15
2.18111e-15
2.24605e-15
2.31284e-15
2.38153e-15
2.45217e-15
2.52482e-15
2.59952e-15
2.67635e-15
2.75534e-15
2.83658e-15
2.92011e-15
3.00599e-15
3.0943e-15
3.1851e-15
3.27846e-15
3.37444e-15
3.47312e-15
3.57457e-15
3.67887e-15
3.78609e-15
3.89631e-15
4.00962e-15
4.1261e-15
4.24583e-15
4.36889e-15
4.49539e-15
4.62541e-15
4.75905e-15
4.89641e-15
5.03757e-15
5.18265e-15
5.33175e-15
5.48498e-15
5.64245e-15
5.80426e-15
5.97055e-15
6.14141e-15
6.31698e-15
6.49739e-15
6.68275e-15
6.87319e-15
7.06887e-15
7.2699e-15
7.47643e-15
7.68861e-15
7.90658e-15
8.1305e-15
8.36052e-15
8.59679e-15
8.8395e-15
9.08879e-15
9.34484e-15
9.60783e-15
9.87793e-15
1.01553e-14
1.04402e-14
1.07328e-14
1.10333e-14
1.13418e-14
1.16586e-14
1.19839e-14
1.2318e-14
1.2661e-14
1.30131e-14
1.33747e-14
1.37459e-14
1.4127e-14
1.45182e-14
1.49198e-14
1.53321e-14
1.57553e-14
1.61896e-14
1.66355e-14
1.70931e-14
1.75628e-14
1.80449e-14
1.85396e-14
1.90473e-14
1.95683e-14
2.01029e-14
2.06515e-14
2.12145e-14
2.1792e-14
2.23847e-14
2.29927e-14
2.36165e-14
2.42565e-14
2.4913e-14
2.55864e-14
2.62773e-14
2.69859e-14
2.77128e-14
2.84583e-14
2.92229e-14
3.00071e-14
3.08113e-14
3.16361e-14
3.24818e-14
3.33491e-14
3.42384e-14
3.51502e-14
3.60851e-14
3.70436e-14
3.80263e-14
3.90337e-14
4.00665e-14
4.11251e-14
4.22103e-14
4.33226e-14
4.44627e-14
4.56312e-14
4.68288e-14
4.8056e-14
4.93137e-14
5.06025e-14
5.19231e-14
5.32763e-14
5.46627e-14
5.60832e-14
5.75385e-14
5.90294e-14
6.05566e-14
6.21211e-14
6.37235e-14
6.53649e-14
6.70459e-14
6.87676e-14
7.05308e-14
7.23364e-14
7.41853e-14
7.60785e-14
7.80169e-14
8.00016e-14
8.20334e-14
8.41135e-14
8.62428e-14
8.84223e-14
9.06532e-14
9.29366e-14
9.52734e-14
9.76649e-14
1.00112e-13
1.02616e-13
1.05178e-13
1.078e-13
1.10482e-13
1.13225e-13
1.16031e-13
1.18902e-13
1.21838e-13
1.2484e-13
1.2791e-13
1.3105e-13
1.3426e-13
1.37542e-13
1.40897e-13
1.44326e-13
1.47831e-13
1.51414e-13
1.55075e-13
1.58816e-13
1.62638e-13
1.66542e-13
1.70531e-13
1.74605e-13
1.78765e-13
1.83013e-13
1.87351e-13
1.91779e-13
1.96299e-13
2.00911e-13
2.05618e-13
2.10421e-13
2.15319e-13
2.20315e-13
2.2541e-13
2.30604e-13
2.35898e-13
2.41294e-13
2.46791e-13
2.5239e-13
2.58092e-13
2.63897e-13
2.69805e-13
2.75816e-13
2.8193e-13
2.88147e-13
2.94466e-13
3.00886e-13
3.07405e-13
3.14024e-13
3.20739e-13
3.27549e-13
3.34452e-13
3.41443e-13
3.48521e-13
3.55681e-13
3.62919e-13
3.7023e-13
3.77607e-13
3.85045e-13
3.92537e-13
4.00074e-13
4.07646e-13
4.15245e-13
4.22859e-13
4.30476e-13
4.38081e-13
4.4566e-13
4.53196e-13
4.6067e-13
4.68062e-13
4.7535e-13
4.82508e-13
4.89511e-13
4.96327e-13
5.02925e-13
5.0927e-13
5.15321e-13
5.21037e-13
5.26371e-13
5.31272e-13
5.35685e-13
5.39549e-13
5.42798e-13
5.4536e-13
5.47158e-13
5.48103e-13
4.02628e-20
1.29062e-19
2.26582e-19
3.33392e-19
4.50085e-19
5.77205e-19
7.15281e-19
8.64842e-19
1.02643e-18
1.20062e-18
1.388e-18
1.58919e-18
1.80484e-18
2.0356e-18
2.28217e-18
2.54524e-18
2.82554e-18
3.12381e-18
3.44082e-18
3.77734e-18
4.13417e-18
4.51214e-18
4.91208e-18
5.33486e-18
5.78135e-18
6.25246e-18
6.74912e-18
7.27227e-18
7.82288e-18
8.40196e-18
9.01051e-18
9.64959e-18
1.03203e-17
1.10236e-17
1.17608e-17
1.2533e-17
1.33412e-17
1.41869e-17
1.50711e-17
1.59952e-17
1.69604e-17
1.79682e-17
1.90198e-17
2.01166e-17
2.12601e-17
2.24518e-17
2.36932e-17
2.49858e-17
2.63312e-17
2.77311e-17
2.9187e-17
3.07008e-17
3.22741e-17
3.39089e-17
3.56069e-17
3.737e-17
3.92003e-17
4.10996e-17
4.30702e-17
4.5114e-17
4.72332e-17
4.94302e-17
5.17071e-17
5.40664e-17
5.65104e-17
5.90417e-17
6.16628e-17
6.43764e-17
6.7185e-17
7.00916e-17
7.3099e-17
7.621e-17
7.94277e-17
8.27553e-17
8.61959e-17
8.97527e-17
9.34292e-17
9.72288e-17
1.01155e-16
1.05212e-16
1.09402e-16
1.13731e-16
1.18202e-16
1.22819e-16
1.27586e-16
1.32507e-16
1.37588e-16
1.42832e-16
1.48245e-16
1.53831e-16
1.59596e-16
1.65544e-16
1.7168e-16
1.7801e-16
1.84541e-16
1.91276e-16
1.98223e-16
2.05388e-16
2.12776e-16
2.20394e-16
2.28249e-16
2.36348e-16
2.44697e-16
2.53304e-16
2.62176e-16
2.71321e-16
2.80746e-16
2.90461e-16
3.00472e-16
3.10789e-16
3.2142e-16
3.32374e-16
3.43661e-16
3.5529e-16
3.67272e-16
3.79615e-16
3.92331e-16
4.05429e-16
4.18922e-16
4.3282e-16
4.47135e-16
4.6188e-16
4.77065e-16
4.92704e-16
5.08809e-16
5.25395e-16
5.42475e-16
5.60062e-16
5.78172e-16
5.96819e-16
6.16019e-16
6.35787e-16
6.56139e-16
6.77093e-16
6.98665e-16
7.20872e-16
7.43734e-16
7.67268e-16
7.91494e-16
8.1643e-16
8.42098e-16
8.68518e-16
8.95712e-16
9.23701e-16
9.52507e-16
9.82155e-16
1.01267e-15
1.04407e-15
1.07638e-15
1.10964e-15
1.14386e-15
1.17907e-15
1.21531e-15
1.2526e-15
1.29096e-15
1.33044e-15
1.37105e-15
1.41284e-15
1.45584e-15
1.50008e-15
1.54559e-15
1.59241e-15
1.64057e-15
1.69012e-15
1.74109e-15
1.79353e-15
1.84747e-15
1.90295e-15
1.96002e-15
2.01872e-15
2.0791e-15
2.1412e-15
2.20507e-15
2.27076e-15
2.33832e-15
2.4078e-15
2.47926e-15
2.55274e-15
2.62831e-15
2.70603e-15
2.78594e-15
2.86811e-15
2.95261e-15
3.03949e-15
3.12882e-15
3.22067e-15
3.31511e-15
3.41221e-15
3.51204e-15
3.61467e-15
3.72018e-15
3.82865e-15
3.94015e-15
4.05478e-15
4.17261e-15
4.29374e-15
4.41824e-15
4.54621e-15
4.67775e-15
4.81295e-15
4.95191e-15
5.09473e-15
5.2415e-15
5.39235e-15
5.54737e-15
5.70668e-15
5.87039e-15
6.03862e-15
6.21149e-15
6.38913e-15
6.57164e-15
6.75918e-15
6.95187e-15
7.14984e-15
7.35324e-15
7.5622e-15
7.77688e-15
7.99742e-15
8.22397e-15
8.4567e-15
8.69577e-15
8.94133e-15
9.19357e-15
9.45264e-15
9.71874e-15
9.99204e-15
1.02727e-14
1.0561e-14
1.0857e-14
1.1161e-14
1.14732e-14
1.17938e-14
1.2123e-14
1.2461e-14
1.28081e-14
1.31644e-14
1.35303e-14
1.39059e-14
1.42915e-14
1.46874e-14
1.50938e-14
1.5511e-14
1.59392e-14
1.63788e-14
1.683e-14
1.72931e-14
1.77684e-14
1.82562e-14
1.87568e-14
1.92706e-14
1.97978e-14
2.03389e-14
2.08941e-14
2.14638e-14
2.20483e-14
2.2648e-14
2.32634e-14
2.38947e-14
2.45423e-14
2.52068e-14
2.58883e-14
2.65875e-14
2.73047e-14
2.80403e-14
2.87948e-14
2.95687e-14
3.03624e-14
3.11763e-14
3.20111e-14
3.28671e-14
3.37448e-14
3.46449e-14
3.55678e-14
3.6514e-14
3.74842e-14
3.84788e-14
3.94985e-14
4.05438e-14
4.16154e-14
4.27138e-14
4.38397e-14
4.49937e-14
4.61764e-14
4.73886e-14
4.86309e-14
4.9904e-14
5.12086e-14
5.25454e-14
5.39151e-14
5.53186e-14
5.67565e-14
5.82297e-14
5.97388e-14
6.12849e-14
6.28686e-14
6.44908e-14
6.61524e-14
6.78542e-14
6.95971e-14
7.13821e-14
7.321e-14
7.50818e-14
7.69984e-14
7.89609e-14
8.09702e-14
8.30272e-14
8.51331e-14
8.72888e-14
8.94955e-14
9.17542e-14
9.4066e-14
9.6432e-14
9.88533e-14
1.01331e-13
1.03867e-13
1.06461e-13
1.09115e-13
1.1183e-13
1.14608e-13
1.1745e-13
1.20357e-13
1.23329e-13
1.2637e-13
1.29479e-13
1.32658e-13
1.35908e-13
1.39232e-13
1.42629e-13
1.46102e-13
1.49652e-13
1.5328e-13
1.56988e-13
1.60776e-13
1.64647e-13
1.68602e-13
1.72642e-13
1.76768e-13
1.80982e-13
1.85285e-13
1.89678e-13
1.94163e-13
1.98742e-13
2.03414e-13
2.08183e-13
2.13047e-13
2.1801e-13
2.23072e-13
2.28233e-13
2.33496e-13
2.3886e-13
2.44327e-13
2.49897e-13
2.55571e-13
2.61349e-13
2.67232e-13
2.7322e-13
2.79312e-13
2.8551e-13
2.91812e-13
2.98217e-13
3.04726e-13
3.11336e-13
3.18047e-13
3.24857e-13
3.31763e-13
3.38764e-13
3.45856e-13
3.53037e-13
3.60302e-13
3.67646e-13
3.75066e-13
3.82555e-13
3.90106e-13
3.97713e-13
4.05368e-13
4.13061e-13
4.20783e-13
4.28522e-13
4.36265e-13
4.44001e-13
4.51712e-13
4.59382e-13
4.66993e-13
4.74524e-13
4.81953e-13
4.89256e-13
4.96404e-13
5.03369e-13
5.10117e-13
5.16612e-13
5.22816e-13
5.28685e-13
5.34171e-13
5.39222e-13
5.43781e-13
5.47784e-13
5.51162e-13
5.53837e-13
5.55723e-13
5.56721e-13
3.9698e-20
1.27213e-19
2.23223e-19
3.28264e-19
4.42954e-19
5.67907e-19
7.03728e-19
8.51019e-19
1.01038e-18
1.18242e-18
1.36776e-18
1.56702e-18
1.78087e-18
2.00995e-18
2.25495e-18
2.51658e-18
2.79554e-18
3.09257e-18
3.40843e-18
3.7439e-18
4.09978e-18
4.47688e-18
4.87605e-18
5.29815e-18
5.74407e-18
6.21471e-18
6.71102e-18
7.23394e-18
7.78446e-18
8.36357e-18
8.97232e-18
9.61175e-18
1.02829e-17
1.0987e-17
1.17251e-17
1.24983e-17
1.33079e-17
1.41551e-17
1.50411e-17
1.59672e-17
1.69347e-17
1.7945e-17
1.89995e-17
2.00995e-17
2.12466e-17
2.24421e-17
2.36877e-17
2.49849e-17
2.63353e-17
2.77405e-17
2.92022e-17
3.07222e-17
3.23023e-17
3.39442e-17
3.56499e-17
3.74212e-17
3.92602e-17
4.11688e-17
4.31492e-17
4.52034e-17
4.73337e-17
4.95424e-17
5.18317e-17
5.4204e-17
5.66618e-17
5.92075e-17
6.18439e-17