/*--------------------------------*- C++ -*----------------------------------*\
  =========                 |
  \\      /  F ield         | OpenFOAM: The Open Source CFD Toolbox
   \\    /   O peration     | Website:  https://openfoam.org
    \\  /    A nd           | Version:  dev
     \\/     M anipulation  |
\*---------------------------------------------------------------------------*/
FoamFile
{
    format      ascii;
    class       surfaceScalarField;
    location    "0.84";
    object      phi;
}
// * * * * * * * * * * * * * * * * * * * * * * * * * * * * * * * * * * * * * //

dimensions      [0 3 -1 0 0 0 0];

internalField   nonuniform List<scalar> 
15580
(
1.35708e-06
3.78282e-07
1.0749e-06
4.04568e-07
7.91819e-07
2.73948e-07
6.04689e-07
1.75961e-07
4.92341e-07
1.12936e-07
4.22633e-07
7.24747e-08
3.78161e-07
4.67582e-08
3.49488e-07
3.03955e-08
3.309e-07
1.98522e-08
3.18829e-07
1.29688e-08
3.11014e-07
8.43346e-09
3.05998e-07
5.4317e-09
3.02827e-07
3.44511e-09
3.00868e-07
2.13678e-09
2.99696e-07
1.28369e-09
2.99028e-07
7.35947e-10
2.98677e-07
3.91827e-10
2.98517e-07
1.82014e-10
2.98468e-07
5.94042e-11
2.9848e-07
-7.78302e-12
2.98521e-07
-4.07249e-11
2.98573e-07
-5.3313e-11
2.98625e-07
-5.44701e-11
2.98672e-07
-4.97777e-11
2.98713e-07
-4.26053e-11
2.98746e-07
-3.48838e-11
2.98772e-07
-2.76394e-11
2.98792e-07
-2.13363e-11
2.98807e-07
-1.61209e-11
2.98818e-07
-1.19537e-11
2.98826e-07
-8.7198e-12
2.98832e-07
-6.26227e-12
2.98836e-07
-4.43537e-12
2.98839e-07
-3.09529e-12
2.98841e-07
-2.13217e-12
2.98843e-07
-1.44467e-12
2.98844e-07
-9.65133e-13
2.98844e-07
-6.29675e-13
2.98844e-07
-4.02373e-13
2.98844e-07
-2.45012e-13
2.98844e-07
-1.41387e-13
2.98844e-07
-6.88287e-14
2.98844e-07
-2.22332e-14
2.98844e-07
1.23928e-14
2.98844e-07
3.44494e-14
2.98844e-07
5.33583e-14
2.98844e-07
6.57662e-14
2.98844e-07
7.88196e-14
2.98844e-07
8.78806e-14
2.98844e-07
9.91065e-14
2.98844e-07
1.07177e-13
2.98844e-07
1.17981e-13
2.98844e-07
1.25693e-13
2.98844e-07
1.36395e-13
2.98844e-07
1.43701e-13
2.98844e-07
1.54202e-13
2.98844e-07
1.60818e-13
2.98844e-07
1.70905e-13
2.98844e-07
1.7653e-13
2.98844e-07
1.85986e-13
2.98844e-07
1.90361e-13
2.98844e-07
1.99033e-13
2.98844e-07
2.01978e-13
2.98844e-07
2.09767e-13
2.98844e-07
2.11201e-13
2.98844e-07
2.18075e-13
2.98844e-07
2.17986e-13
2.98845e-07
2.23971e-13
2.98846e-07
2.22427e-13
2.98846e-07
2.276e-13
2.98846e-07
2.24728e-13
2.98846e-07
2.29199e-13
2.98846e-07
2.25162e-13
2.98846e-07
2.2906e-13
2.98846e-07
2.24051e-13
2.98846e-07
2.27521e-13
2.98846e-07
2.2174e-13
2.98846e-07
2.24924e-13
2.98846e-07
2.18579e-13
2.98846e-07
2.21612e-13
2.98846e-07
2.14886e-13
2.98846e-07
2.17886e-13
2.98846e-07
2.10956e-13
2.98846e-07
2.14024e-13
2.98846e-07
2.07025e-13
2.98846e-07
2.10236e-13
2.98846e-07
2.03294e-13
2.98846e-07
2.06694e-13
2.98846e-07
1.99893e-13
2.98846e-07
2.03515e-13
2.98846e-07
1.96911e-13
2.98846e-07
2.00759e-13
2.98846e-07
1.94383e-13
2.98846e-07
1.98439e-13
2.98846e-07
1.92298e-13
2.98846e-07
1.96534e-13
2.98846e-07
1.90613e-13
2.98846e-07
1.94979e-13
2.98846e-07
1.89246e-13
2.98846e-07
1.9369e-13
2.98846e-07
1.88103e-13
2.98846e-07
1.92564e-13
2.98846e-07
1.87074e-13
2.98846e-07
1.91496e-13
2.98846e-07
1.86051e-13
2.98846e-07
1.90371e-13
2.98846e-07
1.84915e-13
2.98846e-07
1.89086e-13
2.98846e-07
1.83573e-13
2.98846e-07
1.87545e-13
2.98846e-07
1.81937e-13
2.98846e-07
1.85682e-13
2.98846e-07
1.79949e-13
2.98846e-07
1.83446e-13
2.98846e-07
1.77572e-13
2.98846e-07
1.80824e-13
2.98846e-07
1.74814e-13
2.98846e-07
1.77841e-13
2.98846e-07
1.71726e-13
2.98845e-07
1.74584e-13
2.98844e-07
1.68421e-13
2.98844e-07
1.71189e-13
2.98844e-07
1.6507e-13
2.98844e-07
1.67871e-13
2.98844e-07
1.61923e-13
2.98844e-07
1.64907e-13
2.98844e-07
1.59288e-13
2.98844e-07
1.62642e-13
2.98844e-07
1.57531e-13
2.98844e-07
1.61437e-13
2.98844e-07
1.57001e-13
2.98844e-07
1.61636e-13
2.98844e-07
1.5801e-13
2.98844e-07
1.63484e-13
2.98844e-07
1.60727e-13
2.98844e-07
1.67072e-13
2.98844e-07
1.65133e-13
2.98844e-07
1.72241e-13
2.98844e-07
1.70925e-13
2.98844e-07
1.78548e-13
2.98844e-07
1.7754e-13
2.98844e-07
1.85278e-13
2.98844e-07
1.84065e-13
2.98844e-07
1.91433e-13
2.98844e-07
1.8948e-13
2.98844e-07
1.9588e-13
2.98844e-07
1.92605e-13
2.98844e-07
1.97487e-13
2.98844e-07
1.92371e-13
2.98844e-07
1.95261e-13
2.98844e-07
1.87922e-13
2.98844e-07
1.88529e-13
2.98844e-07
1.78798e-13
2.98844e-07
1.77044e-13
2.98844e-07
1.64996e-13
2.98844e-07
1.61071e-13
2.98844e-07
1.4705e-13
2.98844e-07
1.41373e-13
2.98843e-07
1.25939e-13
2.98842e-07
1.19162e-13
2.98842e-07
1.03039e-13
2.98842e-07
9.58734e-14
2.98842e-07
7.98656e-14
2.98842e-07
7.30975e-14
2.98842e-07
5.79761e-14
2.98842e-07
5.22933e-14
2.98842e-07
3.86873e-14
2.98842e-07
3.46348e-14
2.98842e-07
2.29683e-14
2.98842e-07
2.08351e-14
2.98842e-07
1.12703e-14
2.98842e-07
1.10958e-14
2.98842e-07
3.5296e-15
2.98842e-07
5.08e-15
2.98842e-07
-8.582e-16
2.98842e-07
1.9838e-15
2.98842e-07
-2.8621e-15
2.98842e-07
6.746e-16
2.98842e-07
-3.711e-15
2.98842e-07
-9.41e-17
2.98842e-07
-4.6298e-15
2.98842e-07
-1.5047e-15
2.98842e-07
-6.6866e-15
2.98842e-07
-4.4497e-15
2.98842e-07
-1.05756e-14
2.98842e-07
-9.4228e-15
2.98842e-07
-1.65463e-14
2.98842e-07
-1.64052e-14
2.98842e-07
-2.43166e-14
2.98842e-07
-2.48881e-14
2.98842e-07
-3.31603e-14
2.98842e-07
-3.39347e-14
2.98842e-07
-4.19809e-14
2.98842e-07
-4.23551e-14
2.98842e-07
-4.95343e-14
2.98842e-07
-4.8866e-14
2.98842e-07
-5.45711e-14
2.98842e-07
-5.23055e-14
2.98842e-07
-5.60575e-14
2.98842e-07
-5.17996e-14
2.98842e-07
-5.33362e-14
2.98842e-07
-4.69323e-14
2.98842e-07
-4.62607e-14
2.98842e-07
-3.78155e-14
2.98842e-07
-3.52068e-14
2.98842e-07
-2.50974e-14
2.98842e-07
-2.10774e-14
2.98842e-07
-9.88668e-15
2.98842e-07
-5.17053e-15
2.98842e-07
6.3777e-15
2.98842e-07
1.0977e-14
2.98842e-07
2.20661e-14
2.98842e-07
2.57514e-14
2.98842e-07
3.56502e-14
2.98842e-07
3.77218e-14
2.98842e-07
4.58353e-14
2.98842e-07
4.57801e-14
2.98842e-07
5.17022e-14
2.98842e-07
4.92392e-14
2.98842e-07
5.28141e-14
2.98842e-07
4.79231e-14
2.98842e-07
4.92205e-14
2.98842e-07
4.21056e-14
2.98842e-07
4.14105e-14
2.98842e-07
3.24615e-14
2.98842e-07
3.01904e-14
2.98842e-07
1.99136e-14
2.98842e-07
1.65791e-14
2.98842e-07
5.5387e-15
2.98842e-07
1.67447e-15
2.98842e-07
-9.5588e-15
2.98842e-07
-1.34217e-14
2.98842e-07
-2.43313e-14
2.98842e-07
-2.77305e-14
2.98842e-07
-3.78491e-14
2.98842e-07
-4.03675e-14
2.98842e-07
-4.931e-14
2.98842e-07
-5.06065e-14
2.98842e-07
-5.80507e-14
2.98842e-07
-5.78324e-14
2.98842e-07
-6.35325e-14
2.98842e-07
-6.15865e-14
2.98842e-07
-6.53705e-14
2.98842e-07
-6.15448e-14
2.98842e-07
-6.33324e-14
2.98842e-07
-5.75703e-14
2.98842e-07
-5.73885e-14
2.98842e-07
-4.97483e-14
2.98842e-07
-4.77636e-14
2.98842e-07
-3.84558e-14
2.98842e-07
-3.49846e-14
2.98842e-07
-2.43705e-14
2.98842e-07
-1.99266e-14
2.98842e-07
-8.5267e-15
2.98843e-07
-3.7278e-15
2.98844e-07
7.8235e-15
2.98844e-07
1.22561e-14
2.98844e-07
2.3237e-14
2.98844e-07
2.65443e-14
2.98844e-07
3.6255e-14
2.98844e-07
3.77404e-14
2.98844e-07
4.55539e-14
2.98844e-07
4.46553e-14
2.98844e-07
5.01206e-14
2.98844e-07
4.6484e-14
2.98844e-07
4.93549e-14
2.98844e-07
4.28716e-14
2.98844e-07
4.31604e-14
2.98844e-07
3.39825e-14
2.98844e-07
3.19278e-14
2.98844e-07
2.04349e-14
2.98844e-07
1.64845e-14
2.98844e-07
3.2325e-15
2.98844e-07
-2.0431e-15
2.98844e-07
-1.63987e-14
2.98844e-07
-2.23546e-14
2.98844e-07
-3.7126e-14
2.98844e-07
-4.31341e-14
2.98844e-07
-5.7677e-14
2.98844e-07
-6.31665e-14
2.98844e-07
-7.69278e-14
2.98844e-07
-8.14446e-14
2.98844e-07
-9.4003e-14
2.98844e-07
-9.72127e-14
2.98844e-07
-1.08271e-13
2.98844e-07
-1.09979e-13
2.98844e-07
-1.19383e-13
2.98844e-07
-1.19501e-13
2.98844e-07
-1.27204e-13
2.98844e-07
-1.2575e-13
2.98844e-07
-1.31803e-13
2.98844e-07
-1.28863e-13
2.98844e-07
-1.33375e-13
2.98844e-07
-1.29083e-13
2.98844e-07
-1.32205e-13
2.98844e-07
-1.26719e-13
2.98844e-07
-1.28622e-13
2.98843e-07
-1.2211e-13
2.98842e-07
-1.22969e-13
2.98842e-07
-1.15589e-13
2.98842e-07
-1.15568e-13
2.98842e-07
-1.07469e-13
2.98842e-07
-1.0672e-13
2.98842e-07
-9.80302e-14
2.98842e-07
-9.66886e-14
2.98842e-07
-8.75246e-14
2.98842e-07
-8.57106e-14
2.98842e-07
-7.61665e-14
2.98842e-07
-7.39834e-14
2.98842e-07
-6.41442e-14
2.98842e-07
-6.16837e-14
2.98842e-07
-5.16212e-14
2.98842e-07
-4.89671e-14
2.98842e-07
-3.87503e-14
2.98842e-07
-3.59776e-14
2.98842e-07
-2.56637e-14
2.98842e-07
-2.28386e-14
2.98842e-07
-1.24825e-14
2.98842e-07
-9.66435e-15
2.98842e-07
6.872e-16
2.98842e-07
3.4452e-15
2.98842e-07
1.37486e-14
2.98842e-07
1.64056e-14
2.98842e-07
2.66334e-14
2.98842e-07
2.91635e-14
2.98842e-07
3.92994e-14
2.98842e-07
4.16952e-14
2.98842e-07
5.17438e-14
2.98842e-07
5.40161e-14
2.98842e-07
6.39991e-14
2.98842e-07
6.61868e-14
2.98842e-07
7.61564e-14
2.98842e-07
7.83242e-14
2.98842e-07
8.8359e-14
2.98842e-07
9.06042e-14
2.98842e-07
1.0081e-13
2.98842e-07
1.03252e-13
2.98842e-07
1.1376e-13
2.98842e-07
1.16539e-13
2.98842e-07
1.27505e-13
2.98842e-07
1.3078e-13
2.98842e-07
1.4238e-13
2.98842e-07
1.46314e-13
2.98842e-07
1.58711e-13
2.98842e-07
1.63466e-13
2.98842e-07
1.76811e-13
2.98842e-07
1.82525e-13
2.98842e-07
1.96948e-13
2.98842e-07
2.037e-13
2.98842e-07
2.19268e-13
2.98843e-07
2.27079e-13
2.98844e-07
2.43779e-13
2.98844e-07
2.52558e-13
2.98844e-07
2.70251e-13
2.98844e-07
2.79774e-13
2.98844e-07
2.98189e-13
2.98844e-07
3.08078e-13
2.98844e-07
3.26775e-13
2.98844e-07
3.36489e-13
2.98844e-07
3.54875e-13
2.98844e-07
3.63716e-13
2.98844e-07
3.81053e-13
2.98844e-07
3.88223e-13
2.98845e-07
4.0373e-13
2.98846e-07
4.08433e-13
2.98846e-07
4.21375e-13
2.98846e-07
4.22952e-13
2.98846e-07
4.32809e-13
2.98846e-07
4.3087e-13
2.98846e-07
4.37421e-13
2.98846e-07
4.3195e-13
2.98847e-07
4.354e-13
2.98848e-07
4.26853e-13
2.98848e-07
4.27964e-13
2.98848e-07
4.17591e-13
2.98848e-07
4.18332e-13
2.98849e-07
4.0921e-13
2.9885e-07
4.14432e-13
2.9885e-07
4.13923e-13
2.9885e-07
4.34737e-13
2.98851e-07
4.58455e-13
2.98852e-07
5.16339e-13
2.98852e-07
5.91637e-13
2.98853e-07
7.19474e-13
2.98854e-07
8.83391e-13
2.98854e-07
1.12158e-12
2.98855e-07
1.41838e-12
2.98856e-07
1.82554e-12
2.98856e-07
2.34343e-12
2.98856e-07
3.06303e-12
2.98855e-07
3.99009e-12
2.98853e-07
5.07789e-12
2.9885e-07
6.11593e-12
2.98845e-07
7.45216e-12
2.98837e-07
1.05411e-11
2.98822e-07
1.56973e-11
2.98804e-07
1.78521e-11
2.98784e-07
1.7519e-11
2.98741e-07
3.20224e-11
6.50003e-11
1.98304e-06
4.85815e-07
1.84462e-06
6.38424e-07
1.60689e-06
5.23689e-07
1.39132e-06
3.85275e-07
1.22721e-06
2.72219e-07
1.10744e-06
1.88742e-07
1.02181e-06
1.29728e-07
9.61592e-07
8.87259e-08
9.19773e-07
6.03897e-08
8.91053e-07
4.08417e-08
8.71549e-07
2.73821e-08
8.58473e-07
1.81462e-08
8.49842e-07
1.18446e-08
8.44253e-07
7.58134e-09
8.40718e-07
4.73004e-09
8.3855e-07
2.85142e-09
8.37277e-07
1.63701e-09
8.36574e-07
8.70817e-10
8.36225e-07
4.02574e-10
8.36088e-07
1.28742e-10
8.3607e-07
-2.11632e-11
8.36114e-07
-9.43799e-11
8.36185e-07
-1.22024e-10
8.36262e-07
-1.24103e-10
8.36335e-07
-1.13163e-10
8.36399e-07
-9.67437e-11
8.36452e-07
-7.91843e-11
8.36495e-07
-6.27485e-11
8.36529e-07
-4.84844e-11
8.36555e-07
-3.66791e-11
8.36574e-07
-2.72611e-11
8.36588e-07
-1.99339e-11
8.36598e-07
-1.43721e-11
8.36605e-07
-1.02121e-11
8.3661e-07
-7.16424e-12
8.36614e-07
-4.94694e-12
8.36617e-07
-3.36767e-12
8.36619e-07
-2.24e-12
8.3662e-07
-1.45624e-12
8.3662e-07
-9.01139e-13
8.36621e-07
-5.24092e-13
8.36622e-07
-2.54723e-13
8.36622e-07
-7.61953e-14
8.36622e-07
5.63089e-14
8.36622e-07
1.41307e-13
8.36622e-07
2.10094e-13
8.36622e-07
2.51874e-13
8.36622e-07
2.91264e-13
8.36622e-07
3.12913e-13
8.36622e-07
3.38455e-13
8.36622e-07
3.50253e-13
8.36622e-07
3.68888e-13
8.36622e-07
3.75391e-13
8.36622e-07
3.90323e-13
8.36622e-07
3.9366e-13
8.36622e-07
4.06524e-13
8.36622e-07
4.0781e-13
8.36622e-07
4.19572e-13
8.36622e-07
4.19499e-13
8.36622e-07
4.30837e-13
8.36622e-07
4.29907e-13
8.36622e-07
4.41283e-13
8.36622e-07
4.3978e-13
8.36622e-07
4.51464e-13
8.36622e-07
4.49589e-13
8.36622e-07
4.61767e-13
8.36622e-07
4.59625e-13
8.36622e-07
4.72354e-13
8.36622e-07
4.69967e-13
8.36623e-07
4.83221e-13
8.36624e-07
4.80559e-13
8.36624e-07
4.94252e-13
8.36624e-07
4.91249e-13
8.36624e-07
5.05263e-13
8.36624e-07
5.01856e-13
8.36624e-07
5.16071e-13
8.36624e-07
5.12204e-13
8.36624e-07
5.26516e-13
8.36624e-07
5.22162e-13
8.36624e-07
5.36484e-13
8.36624e-07
5.31637e-13
8.36624e-07
5.45915e-13
8.36624e-07
5.40594e-13
8.36624e-07
5.54779e-13
8.36624e-07
5.49003e-13
8.36624e-07
5.63077e-13
8.36624e-07
5.56908e-13
8.36624e-07
5.70873e-13
8.36624e-07
5.64361e-13
8.36624e-07
5.78212e-13
8.36624e-07
5.71392e-13
8.36624e-07
5.85108e-13
8.36624e-07
5.77999e-13
8.36624e-07
5.91555e-13
8.36624e-07
5.84156e-13
8.36624e-07
5.97501e-13
8.36624e-07
5.89784e-13
8.36624e-07
6.02857e-13
8.36624e-07
5.94777e-13
8.36624e-07
6.07494e-13
8.36624e-07
5.98984e-13
8.36624e-07
6.11259e-13
8.36624e-07
6.02242e-13
8.36624e-07
6.13971e-13
8.36624e-07
6.04356e-13
8.36624e-07
6.15443e-13
8.36624e-07
6.05143e-13
8.36624e-07
6.15491e-13
8.36624e-07
6.04426e-13
8.36624e-07
6.1396e-13
8.36624e-07
6.02068e-13
8.36624e-07
6.10727e-13
8.36624e-07
5.97966e-13
8.36624e-07
6.05732e-13
8.36624e-07
5.92106e-13
8.36624e-07
5.98998e-13
8.36624e-07
5.84558e-13
8.36624e-07
5.90671e-13
8.36624e-07
5.75542e-13
8.36624e-07
5.81032e-13
8.36624e-07
5.65414e-13
8.36624e-07
5.70541e-13
8.36624e-07
5.5474e-13
8.36624e-07
5.5986e-13
8.36624e-07
5.4428e-13
8.36624e-07
5.49857e-13
8.36624e-07
5.34992e-13
8.36624e-07
5.41549e-13
8.36624e-07
5.27938e-13
8.36624e-07
5.36034e-13
8.36624e-07
5.24204e-13
8.36624e-07
5.34333e-13
8.36624e-07
5.24704e-13
8.36624e-07
5.37218e-13
8.36624e-07
5.30004e-13
8.36624e-07
5.44977e-13
8.36624e-07
5.40075e-13
8.36624e-07
5.57242e-13
8.36624e-07
5.54166e-13
8.36624e-07
5.7284e-13
8.36624e-07
5.7069e-13
8.36624e-07
5.89801e-13
8.36624e-07
5.87317e-13
8.36624e-07
6.05484e-13
8.36624e-07
6.0115e-13
8.36624e-07
6.16801e-13
8.36624e-07
6.09041e-13
8.36624e-07
6.20638e-13
8.36624e-07
6.08028e-13
8.36624e-07
6.14299e-13
8.36624e-07
5.95784e-13
8.36624e-07
5.95906e-13
8.36624e-07
5.70985e-13
8.36624e-07
5.64757e-13
8.36624e-07
5.33597e-13
8.36624e-07
5.21498e-13
8.36624e-07
4.84958e-13
8.36624e-07
4.68132e-13
8.36624e-07
4.2766e-13
8.36624e-07
4.0776e-13
8.36624e-07
3.65247e-13
8.36624e-07
3.44263e-13
8.36624e-07
3.0179e-13
8.36624e-07
2.81741e-13
8.36624e-07
2.41307e-13
8.36624e-07
2.24046e-13
8.36624e-07
1.87319e-13
8.36624e-07
1.74239e-13
8.36624e-07
1.42321e-13
8.36624e-07
1.34216e-13
8.36624e-07
1.07561e-13
8.36623e-07
1.04526e-13
8.36622e-07
8.28831e-14
8.36622e-07
8.43579e-14
8.36622e-07
6.68456e-14
8.36622e-07
7.17015e-14
8.36622e-07
5.69722e-14
8.36622e-07
6.37379e-14
8.36622e-07
5.02253e-14
8.36622e-07
5.73211e-14
8.36622e-07
4.34881e-14
8.36622e-07
4.95011e-14
8.36622e-07
3.41044e-14
8.36622e-07
3.80172e-14
8.36622e-07
2.03173e-14
8.36622e-07
2.16826e-14
8.36622e-07
1.55877e-15
8.36622e-07
5.616e-16
8.36622e-07
-2.1473e-14
8.36622e-07
-2.40467e-14
8.36622e-07
-4.69316e-14
8.36622e-07
-4.98241e-14
8.36622e-07
-7.21081e-14
8.36622e-07
-7.37657e-14
8.36622e-07
-9.38356e-14
8.36622e-07
-9.26691e-14
8.36622e-07
-1.09009e-13
8.36622e-07
-1.03634e-13
8.36622e-07
-1.15071e-13
8.36622e-07
-1.04552e-13
8.36622e-07
-1.10445e-13
8.36622e-07
-9.44228e-14
8.36622e-07
-9.47796e-14
8.36622e-07
-7.35733e-14
8.36622e-07
-6.90838e-14
8.36622e-07
-4.36536e-14
8.36622e-07
-3.56227e-14
8.36622e-07
-7.49958e-15
8.36622e-07
2.28031e-15
8.36622e-07
3.12168e-14
8.36622e-07
4.07421e-14
8.36622e-07
6.84923e-14
8.36622e-07
7.57629e-14
8.36622e-07
1.00453e-13
8.36622e-07
1.03728e-13
8.36622e-07
1.23831e-13
8.36622e-07
1.21806e-13
8.36622e-07
1.36312e-13
8.36622e-07
1.28271e-13
8.36622e-07
1.3676e-13
8.36622e-07
1.22603e-13
8.36622e-07
1.25262e-13
8.36622e-07
1.05459e-13
8.36622e-07
1.02955e-13
8.36622e-07
7.84046e-14
8.36622e-07
7.17885e-14
8.36622e-07
4.37098e-14
8.36622e-07
3.42507e-14
8.36622e-07
4.0062e-15
8.36622e-07
-6.94136e-15
8.36622e-07
-3.7984e-14
8.36622e-07
-4.91257e-14
8.36622e-07
-7.96839e-14
8.36622e-07
-8.97972e-14
8.36622e-07
-1.18692e-13
8.36622e-07
-1.26707e-13
8.36622e-07
-1.52926e-13
8.36622e-07
-1.57896e-13
8.36622e-07
-1.80565e-13
8.36622e-07
-1.81706e-13
8.36622e-07
-2.00118e-13
8.36622e-07
-1.96774e-13
8.36622e-07
-2.10371e-13
8.36622e-07
-2.02092e-13
8.36622e-07
-2.10566e-13
8.36622e-07
-1.97131e-13
8.36622e-07
-2.00439e-13
8.36622e-07
-1.81954e-13
8.36622e-07
-1.8043e-13
8.36622e-07
-1.57384e-13
8.36622e-07
-1.51758e-13
8.36622e-07
-1.25056e-13
8.36622e-07
-1.16488e-13
8.36622e-07
-8.74474e-14
8.36622e-07
-7.7506e-14
8.36622e-07
-4.77961e-14
8.36622e-07
-3.82897e-14
8.36622e-07
-9.75727e-15
8.36622e-07
-2.5923e-15
8.36622e-07
2.291e-14
8.36622e-07
2.59486e-14
8.36622e-07
4.68002e-14
8.36622e-07
4.4267e-14
8.36622e-07
5.92524e-14
8.36622e-07
5.02099e-14
8.36622e-07
5.86885e-14
8.36622e-07
4.2829e-14
8.36622e-07
4.47869e-14
8.36622e-07
2.24488e-14
8.36622e-07
1.84977e-14
8.36622e-07
-9.39479e-15
8.36622e-07
-1.81426e-14
8.36622e-07
-5.0226e-14
8.36622e-07
-6.22961e-14
8.36622e-07
-9.69365e-14
8.36622e-07
-1.10695e-13
8.36622e-07
-1.46186e-13
8.36622e-07
-1.60003e-13
8.36622e-07
-1.94731e-13
8.36622e-07
-2.07155e-13
8.36622e-07
-2.39744e-13
8.36622e-07
-2.49592e-13
8.36622e-07
-2.78981e-13
8.36622e-07
-2.85402e-13
8.36622e-07
-3.10861e-13
8.36622e-07
-3.13331e-13
8.36622e-07
-3.34484e-13
8.36622e-07
-3.32821e-13
8.36622e-07
-3.49589e-13
8.36622e-07
-3.43843e-13
8.36622e-07
-3.5637e-13
8.36622e-07
-3.468e-13
8.36622e-07
-3.55404e-13
8.36622e-07
-3.42385e-13
8.36622e-07
-3.47484e-13
8.36622e-07
-3.31474e-13
8.36622e-07
-3.3354e-13
8.36622e-07
-3.15009e-13
8.36622e-07
-3.1452e-13
8.36622e-07
-2.93936e-13
8.36622e-07
-2.91348e-13
8.36622e-07
-2.69132e-13
8.36622e-07
-2.64857e-13
8.36622e-07
-2.41389e-13
8.36622e-07
-2.35797e-13
8.36622e-07
-2.11403e-13
8.36623e-07
-2.04816e-13
8.36624e-07
-1.79783e-13
8.36624e-07
-1.72484e-13
8.36624e-07
-1.47051e-13
8.36624e-07
-1.39284e-13
8.36624e-07
-1.13666e-13
8.36624e-07
-1.05653e-13
8.36624e-07
-8.00359e-14
8.36624e-07
-7.1975e-14
8.36624e-07
-4.65323e-14
8.36624e-07
-3.86083e-14
8.36624e-07
-1.34901e-14
8.36624e-07
-5.86545e-15
8.36624e-07
1.87924e-14
8.36624e-07
2.59738e-14
8.36624e-07
5.00634e-14
8.36624e-07
5.66875e-14
8.36624e-07
8.01266e-14
8.36624e-07
8.61142e-14
8.36624e-07
1.0887e-13
8.36624e-07
1.14195e-13
8.36624e-07
1.36283e-13
8.36624e-07
1.40977e-13
8.36624e-07
1.62485e-13
8.36624e-07
1.66655e-13
8.36624e-07
1.87739e-13
8.36624e-07
1.91567e-13
8.36624e-07
2.12471e-13
8.36624e-07
2.16224e-13
8.36624e-07
2.37268e-13
8.36624e-07
2.41287e-13
8.36624e-07
2.62869e-13
8.36624e-07
2.67564e-13
8.36624e-07
2.90136e-13
8.36624e-07
2.95952e-13
8.36624e-07
3.19996e-13
8.36624e-07
3.27405e-13
8.36624e-07
3.53413e-13
8.36625e-07
3.62858e-13
8.36626e-07
3.9126e-13
8.36626e-07
4.03098e-13
8.36626e-07
4.34207e-13
8.36626e-07
4.48642e-13
8.36626e-07
4.8259e-13
8.36626e-07
4.99599e-13
8.36626e-07
5.3624e-13
8.36626e-07
5.55472e-13
8.36626e-07
5.94295e-13
8.36626e-07
6.1498e-13
8.36626e-07
6.55017e-13
8.36627e-07
6.7591e-13
8.36628e-07
7.15695e-13
8.36628e-07
7.35015e-13
8.36628e-07
7.72537e-13
8.36628e-07
7.88002e-13
8.36628e-07
8.20824e-13
8.36628e-07
8.29816e-13
8.36629e-07
8.55295e-13
8.3663e-07
8.55189e-13
8.3663e-07
8.70917e-13
8.3663e-07
8.59597e-13
8.36631e-07
8.63975e-13
8.36632e-07
8.40498e-13
8.36632e-07
8.33457e-13
8.36632e-07
7.98726e-13
8.36633e-07
7.82296e-13
8.36634e-07
7.39575e-13
8.36634e-07
7.18413e-13
8.36635e-07
6.73996e-13
8.36636e-07
6.56575e-13
8.36637e-07
6.22134e-13
8.36638e-07
6.25113e-13
8.36639e-07
6.24864e-13
8.3664e-07
6.83678e-13
8.36641e-07
7.68052e-13
8.36643e-07
9.52083e-13
8.36644e-07
1.21104e-12
8.36645e-07
1.6306e-12
8.36647e-07
2.19396e-12
8.36648e-07
2.99908e-12
8.36648e-07
4.04877e-12
8.36648e-07
5.48007e-12
8.36648e-07
7.35696e-12
8.36646e-07
9.91115e-12
8.36642e-07
1.32368e-11
8.36635e-07
1.73602e-11
8.36623e-07
2.1987e-11
8.36607e-07
2.7398e-11
8.36585e-07
3.52476e-11
8.36554e-07
4.66663e-11
8.36522e-07
5.84454e-11
8.36486e-07
7.33462e-11
8.3643e-07
9.72198e-11
1.27273e-10
2.07882e-06
3.94184e-07
2.08768e-06
6.39953e-07
1.99299e-06
6.19341e-07
1.86148e-06
5.14395e-07
1.73326e-06
3.98043e-07
1.62401e-06
2.96165e-07
1.53724e-06
2.15111e-07
1.47131e-06
1.53644e-07
1.42274e-06
1.08265e-07
1.3878e-06
7.53364e-08
1.36314e-06
5.17519e-08
1.34605e-06
3.50531e-08
1.33442e-06
2.33638e-08
1.32665e-06
1.52805e-08
1.32157e-06
9.7665e-09
1.31834e-06
6.06361e-09
1.31634e-06
3.62206e-09
1.31516e-06
2.0472e-09
1.3145e-06
1.05868e-09
1.31417e-06
4.59821e-10
1.31404e-06
1.14474e-10
1.31402e-06
-7.0124e-11
1.31405e-06
-1.56122e-10
1.31411e-06
-1.84253e-10
1.31418e-06
-1.8062e-10
1.31425e-06
-1.61388e-10
1.31431e-06
-1.36213e-10
1.31436e-06
-1.1049e-10
1.3144e-06
-8.70011e-11
1.31443e-06
-6.68949e-11
1.31445e-06
-5.04402e-11
1.31447e-06
-3.73872e-11
1.31448e-06
-2.73046e-11
1.31449e-06
-1.96598e-11
1.3145e-06
-1.39755e-11
1.3145e-06
-9.79665e-12
1.31451e-06
-6.77588e-12
1.31451e-06
-4.60239e-12
1.31451e-06
-3.0653e-12
1.31451e-06
-1.97335e-12
1.31451e-06
-1.21412e-12
1.31451e-06
-6.75422e-13
1.31451e-06
-3.0559e-13
1.31451e-06
-3.88807e-14
1.31451e-06
1.42405e-13
1.31451e-06
2.78748e-13
1.31451e-06
3.70235e-13
1.31451e-06
4.44379e-13
1.31451e-06
4.92751e-13
1.31451e-06
5.36481e-13
1.31451e-06
5.63314e-13
1.31451e-06
5.91296e-13
1.31451e-06
6.06645e-13
1.31451e-06
6.25873e-13
1.31451e-06
6.3471e-13
1.31451e-06
6.48825e-13
1.31451e-06
6.53914e-13
1.31451e-06
6.65094e-13
1.31451e-06
6.68205e-13
1.31451e-06
6.77917e-13
1.31451e-06
6.8028e-13
1.31451e-06
6.89533e-13
1.31452e-06
6.91952e-13
1.31452e-06
7.01381e-13
1.31452e-06
7.04369e-13
1.31452e-06
7.14361e-13
1.31452e-06
7.18169e-13
1.31452e-06
7.28853e-13
1.31452e-06
7.33521e-13
1.31452e-06
7.44856e-13
1.31452e-06
7.50267e-13
1.31452e-06
7.62064e-13
1.31452e-06
7.67998e-13
1.31452e-06
7.8002e-13
1.31452e-06
7.86229e-13
1.31452e-06
7.98218e-13
1.31452e-06
8.04464e-13
1.31452e-06
8.16202e-13
1.31452e-06
8.22281e-13
1.31452e-06
8.33578e-13
1.31452e-06
8.39339e-13
1.31452e-06
8.50081e-13
1.31452e-06
8.55433e-13
1.31452e-06
8.65541e-13
1.31452e-06
8.7044e-13
1.31452e-06
8.79908e-13
1.31452e-06
8.84364e-13
1.31452e-06
8.93196e-13
1.31452e-06
8.97229e-13
1.31452e-06
9.05456e-13
1.31452e-06
9.0909e-13
1.31452e-06
9.16723e-13
1.31452e-06
9.19971e-13
1.31452e-06
9.27018e-13
1.31452e-06
9.29865e-13
1.31452e-06
9.36283e-13
1.31452e-06
9.38679e-13
1.31452e-06
9.44417e-13
1.31452e-06
9.4629e-13
1.31452e-06
9.51249e-13
1.31452e-06
9.525e-13
1.31452e-06
9.56581e-13
1.31452e-06
9.57086e-13
1.31452e-06
9.60142e-13
1.31452e-06
9.59757e-13
1.31452e-06
9.61658e-13
1.31452e-06
9.60246e-13
1.31452e-06
9.6085e-13
1.31452e-06
9.58285e-13
1.31452e-06
9.57486e-13
1.31452e-06
9.53664e-13
1.31452e-06
9.51366e-13
1.31452e-06
9.46217e-13
1.31452e-06
9.42394e-13
1.31452e-06
9.35921e-13
1.31452e-06
9.30608e-13
1.31452e-06
9.22898e-13
1.31452e-06
9.16251e-13
1.31452e-06
9.07506e-13
1.31452e-06
8.9978e-13
1.31452e-06
8.9033e-13
1.31452e-06
8.8195e-13
1.31452e-06
8.72299e-13
1.31452e-06
8.6385e-13
1.31452e-06
8.54667e-13
1.31452e-06
8.46908e-13
1.31452e-06
8.39004e-13
1.31452e-06
8.32785e-13
1.31452e-06
8.27047e-13
1.31452e-06
8.23274e-13
1.31452e-06
8.20567e-13
1.31452e-06
8.20037e-13
1.31452e-06
8.21058e-13
1.31452e-06
8.24332e-13
1.31452e-06
8.29435e-13
1.31452e-06
8.36623e-13
1.31452e-06
8.45654e-13
1.31452e-06
8.56315e-13
1.31452e-06
8.68509e-13
1.31452e-06
8.8154e-13
1.31452e-06
8.95465e-13
1.31452e-06
9.09141e-13
1.31452e-06
9.22778e-13
1.31452e-06
9.34854e-13
1.31452e-06
9.45785e-13
1.31452e-06
9.53753e-13
1.31452e-06
9.59455e-13
1.31452e-06
9.60861e-13
1.31452e-06
9.59045e-13
1.31452e-06
9.51865e-13
1.31452e-06
9.4082e-13
1.31452e-06
9.23744e-13
1.31452e-06
9.02627e-13
1.31452e-06
8.75346e-13
1.31452e-06
8.44379e-13
1.31452e-06
8.07663e-13
1.31452e-06
7.68156e-13
1.31452e-06
7.2384e-13
1.31452e-06
6.78051e-13
1.31452e-06
6.28772e-13
1.31452e-06
5.79641e-13
1.31452e-06
5.28567e-13
1.31452e-06
4.79349e-13
1.31452e-06
4.29716e-13
1.31452e-06
3.83551e-13
1.31452e-06
3.38316e-13
1.31452e-06
2.97826e-13
1.31452e-06
2.59205e-13
1.31452e-06
2.26146e-13
1.31452e-06
1.95424e-13
1.31452e-06
1.70524e-13
1.31452e-06
1.47866e-13
1.31452e-06
1.30754e-13
1.31452e-06
1.15293e-13
1.31452e-06
1.04602e-13
1.31452e-06
9.45616e-14
1.31452e-06
8.81952e-14
1.31452e-06
8.12733e-14
1.31452e-06
7.67917e-14
1.31452e-06
7.05194e-14
1.31452e-06
6.55377e-14
1.31452e-06
5.77243e-14
1.31452e-06
5.03109e-14
1.31452e-06
3.93734e-14
1.31452e-06
2.83693e-14
1.31452e-06
1.363e-14
1.31452e-06
-1.15475e-15
1.31452e-06
-1.93899e-14
1.31452e-06
-3.71576e-14
1.31452e-06
-5.76291e-14
1.31452e-06
-7.67257e-14
1.31452e-06
-9.7453e-14
1.31452e-06
-1.1563e-13
1.31452e-06
-1.34185e-13
1.31452e-06
-1.48945e-13
1.31452e-06
-1.62859e-13
1.31452e-06
-1.71847e-13
1.31452e-06
-1.78973e-13
1.31452e-06
-1.8036e-13
1.31452e-06
-1.79264e-13
1.31452e-06
-1.72047e-13
1.31452e-06
-1.622e-13
1.31452e-06
-1.46375e-13
1.31452e-06
-1.28312e-13
1.31452e-06
-1.04924e-13
1.31452e-06
-8.0185e-14
1.31452e-06
-5.12398e-14
1.31452e-06
-2.224e-14
1.31452e-06
9.52397e-15
1.31452e-06
3.98312e-14
1.31452e-06
7.13179e-14
1.31452e-06
9.97802e-14
1.31452e-06
1.27895e-13
1.31452e-06
1.51577e-13
1.31452e-06
1.7362e-13
1.31452e-06
1.9012e-13
1.31452e-06
2.04051e-13
1.31452e-06
2.11768e-13
1.31452e-06
2.16447e-13
1.31452e-06
2.14705e-13
1.31452e-06
2.09913e-13
1.31452e-06
1.98962e-13
1.31452e-06
1.85355e-13
1.31452e-06
1.662e-13
1.31452e-06
1.45096e-13
1.31452e-06
1.1934e-13
1.31452e-06
9.25439e-14
1.31452e-06
6.21314e-14
1.31452e-06
3.16857e-14
1.31452e-06
-1.28419e-15
1.31452e-06
-3.32999e-14
1.31452e-06
-6.67937e-14
1.31452e-06
-9.84028e-14
1.31452e-06
-1.30498e-13
1.31452e-06
-1.59869e-13
1.31452e-06
-1.88844e-13
1.31452e-06
-2.14354e-13
1.31452e-06
-2.38668e-13
1.31452e-06
-2.58898e-13
1.31452e-06
-2.77259e-13
1.31452e-06
-2.91016e-13
1.31452e-06
-3.0232e-13
1.31452e-06
-3.08653e-13
1.31452e-06
-3.12145e-13
1.31452e-06
-3.10464e-13
1.31452e-06
-3.05736e-13
1.31452e-06
-2.9589e-13
1.31452e-06
-2.83083e-13
1.31452e-06
-2.65503e-13
1.31452e-06
-2.4537e-13
1.31452e-06
-2.21153e-13
1.31452e-06
-1.95145e-13
1.31452e-06
-1.6608e-13
1.31452e-06
-1.36307e-13
1.31452e-06
-1.04814e-13
1.31452e-06
-7.39633e-14
1.31452e-06
-4.28943e-14
1.31452e-06
-1.39283e-14
1.31452e-06
1.37021e-14
1.31452e-06
3.78022e-14
1.31452e-06
5.91497e-14
1.31452e-06
7.57664e-14
1.31452e-06
8.84945e-14
1.31452e-06
9.5646e-14
1.31452e-06
9.82036e-14
1.31452e-06
9.4829e-14
1.31452e-06
8.66473e-14
1.31452e-06
7.26859e-14
1.31452e-06
5.42126e-14
1.31452e-06
3.06095e-14
1.31452e-06
3.21387e-15
1.31452e-06
-2.82807e-14
1.31452e-06
-6.25212e-14
1.31452e-06
-9.95533e-14
1.31452e-06
-1.38112e-13
1.31452e-06
-1.7805e-13
1.31452e-06
-2.18257e-13
1.31452e-06
-2.58448e-13
1.31452e-06
-2.97763e-13
1.31452e-06
-3.35827e-13
1.31452e-06
-3.72061e-13
1.31452e-06
-4.06018e-13
1.31452e-06
-4.37451e-13
1.31452e-06
-4.6585e-13
1.31452e-06
-4.9129e-13
1.31452e-06
-5.1321e-13
1.31452e-06
-5.32013e-13
1.31452e-06
-5.47067e-13
1.31452e-06
-5.59061e-13
1.31452e-06
-5.67264e-13
1.31452e-06
-5.72647e-13
1.31452e-06
-5.74358e-13
1.31452e-06
-5.73602e-13
1.31452e-06
-5.69389e-13
1.31452e-06
-5.63146e-13
1.31452e-06
-5.53728e-13
1.31452e-06
-5.42744e-13
1.31452e-06
-5.28875e-13
1.31452e-06
-5.13903e-13
1.31452e-06
-4.96337e-13
1.31452e-06
-4.78097e-13
1.31452e-06
-4.57521e-13
1.31452e-06
-4.36672e-13
1.31452e-06
-4.13721e-13
1.31452e-06
-3.90848e-13
1.31452e-06
-3.66066e-13
1.31452e-06
-3.41674e-13
1.31452e-06
-3.15536e-13
1.31452e-06
-2.90056e-13
1.31452e-06
-2.62962e-13
1.31452e-06
-2.36771e-13
1.31452e-06
-2.09088e-13
1.31452e-06
-1.82525e-13
1.31452e-06
-1.54568e-13
1.31452e-06
-1.2793e-13
1.31452e-06
-9.99917e-14
1.31452e-06
-7.35506e-14
1.31452e-06
-4.58864e-14
1.31452e-06
-1.98892e-14
1.31452e-06
7.25383e-15
1.31452e-06
3.25834e-14
1.31452e-06
5.90067e-14
1.31452e-06
8.34923e-14
1.31452e-06
1.09037e-13
1.31452e-06
1.32558e-13
1.31452e-06
1.57142e-13
1.31452e-06
1.7965e-13
1.31452e-06
2.03255e-13
1.31452e-06
2.24789e-13
1.31452e-06
2.47514e-13
1.31452e-06
2.68229e-13
1.31452e-06
2.90285e-13
1.31452e-06
3.10467e-13
1.31452e-06
3.32204e-13
1.31452e-06
3.52263e-13
1.31452e-06
3.74142e-13
1.31452e-06
3.94608e-13
1.31452e-06
4.17222e-13
1.31452e-06
4.38739e-13
1.31452e-06
4.62771e-13
1.31452e-06
4.86056e-13
1.31452e-06
5.12248e-13
1.31452e-06
5.38049e-13
1.31452e-06
5.67121e-13
1.31452e-06
5.96139e-13
1.31452e-06
6.28732e-13
1.31452e-06
6.61534e-13
1.31452e-06
6.98092e-13
1.31452e-06
7.34994e-13
1.31452e-06
7.75663e-13
1.31453e-06
8.16594e-13
1.31453e-06
8.61023e-13
1.31453e-06
9.05354e-13
1.31453e-06
9.52582e-13
1.31453e-06
9.98979e-13
1.31453e-06
1.04726e-12
1.31453e-06
1.09357e-12
1.31453e-06
1.14028e-12
1.31453e-06
1.18343e-12
1.31453e-06
1.22505e-12
1.31453e-06
1.26114e-12
1.31453e-06
1.29343e-12
1.31453e-06
1.318e-12
1.31453e-06
1.33638e-12
1.31453e-06
1.34497e-12
1.31453e-06
1.3453e-12
1.31453e-06
1.3343e-12
1.31453e-06
1.31374e-12
1.31454e-06
1.28148e-12
1.31454e-06
1.23977e-12
1.31454e-06
1.18767e-12
1.31454e-06
1.12819e-12
1.31454e-06
1.06198e-12
1.31454e-06
9.93211e-13
1.31454e-06
9.24919e-13
1.31454e-06
8.63749e-13
1.31455e-06
8.17343e-13
1.31455e-06
7.98163e-13
1.31455e-06
8.23122e-13
1.31455e-06
9.16565e-13
1.31455e-06
1.11191e-12
1.31455e-06
1.45298e-12
1.31456e-06
1.99676e-12
1.31456e-06
2.81211e-12
1.31456e-06
3.9852e-12
1.31456e-06
5.61541e-12
1.31456e-06
7.82687e-12
1.31456e-06
1.07616e-11
1.31456e-06
1.46054e-11
1.31456e-06
1.95733e-11
1.31455e-06
2.58845e-11
1.31454e-06
3.36661e-11
1.31453e-06
4.31177e-11
1.31451e-06
5.49674e-11
1.31447e-06
7.03657e-11
1.31443e-06
8.81825e-11
1.31439e-06
1.04184e-10
1.31435e-06
1.25066e-10
1.31428e-06
1.55431e-10
1.83025e-10
2.08387e-06
2.96373e-07
2.15696e-06
5.63822e-07
2.16303e-06
6.14789e-07
2.121e-06
5.58877e-07
2.05644e-06
4.63978e-07
1.98829e-06
3.65032e-07
1.92652e-06
2.77182e-07
1.87511e-06
2.05147e-07
1.83461e-06
1.48779e-07
1.80392e-06
1.06019e-07
1.78134e-06
7.43142e-08
1.76514e-06
5.12413e-08
1.75376e-06
3.47248e-08
1.74594e-06
2.30864e-08
1.74068e-06
1.50149e-08
1.73723e-06
9.51053e-09