/*--------------------------------*- C++ -*----------------------------------*\
  =========                 |
  \\      /  F ield         | OpenFOAM: The Open Source CFD Toolbox
   \\    /   O peration     | Website:  https://openfoam.org
    \\  /    A nd           | Version:  dev
     \\/     M anipulation  |
\*---------------------------------------------------------------------------*/
FoamFile
{
    format      ascii;
    class       volScalarField;
    location    "0.54";
    object      cov;
}
// * * * * * * * * * * * * * * * * * * * * * * * * * * * * * * * * * * * * * //

dimensions      [0 0 0 0 0 0 0];

internalField   uniform 0;

boundaryField
{
    frontAndBack
    {
        type            empty;
    }
    inlet
    {
        type            calculated;
        value           uniform 0;
    }
    outlet
    {
        type            calculated;
        value           uniform 0;
    }
    substrate
    {
        type            calculated;
        value           nonuniform List<scalar> 
400
(
0.723392
0.709436
0.699197
0.689838
0.680945
0.672481
0.664346
0.656453
0.648737
0.641155
0.633672
0.626261
0.618904
0.611584
0.604291
0.597014
0.589749
0.582492
0.575238
0.567987
0.560739
0.553493
0.54625
0.539012
0.53178
0.524556
0.517342
0.510141
0.502955
0.495786
0.488637
0.481511
0.474409
0.467335
0.46029
0.453278
0.4463
0.43936
0.432458
0.425598
0.418782
0.412011
0.405288
0.398614
0.391991
0.385422
0.378907
0.372449
0.366049
0.359708
0.353428
0.34721
0.341056
0.334966
0.328941
0.322983
0.317092
0.31127
0.305516
0.299833
0.294219
0.288677
0.283206
0.277807
0.27248
0.267225
0.262044
0.256935
0.251899
0.246936
0.242046
0.237229
0.232486
0.227815
0.223216
0.218691
0.214237
0.209855
0.205545
0.201305
0.197137
0.193038
0.189009
0.18505
0.181159
0.177337
0.173581
0.169893
0.166271
0.162715
0.159223
0.155796
0.152433
0.149132
0.145893
0.142716
0.139599
0.136542
0.133544
0.130604
0.127722
0.124896
0.122127
0.119412
0.116752
0.114145
0.11159
0.109088
0.106636
0.104235
0.101883
0.0995798
0.0973243
0.0951159
0.0929536
0.0908368
0.0887647
0.0867364
0.0847512
0.0828084
0.0809071
0.0790467
0.0772263
0.0754453
0.0737028
0.0719983
0.0703309
0.0687
0.0671049
0.0655448
0.0640192
0.0625273
0.0610684
0.059642
0.0582473
0.0568838
0.0555508
0.0542476
0.0529738
0.0517286
0.0505116
0.049322
0.0481594
0.0470233
0.0459129
0.0448278
0.0437675
0.0427315
0.0417192
0.0407301
0.0397637
0.0388195
0.0378971
0.036996
0.0361158
0.0352559
0.0344159
0.0335954
0.032794
0.0320112
0.0312467
0.0305
0.0297707
0.0290585
0.0283629
0.0276837
0.0270203
0.0263726
0.0257401
0.0251224
0.0245193
0.0239304
0.0233554
0.022794
0.0222458
0.0217106
0.0211881
0.0206779
0.0201799
0.0196936
0.0192189
0.0187555
0.0183031
0.0178615
0.0174304
0.0170095
0.0165987
0.0161977
0.0158062
0.0154241
0.0150512
0.0146871
0.0143318
0.013985
0.0136465
0.0133161
0.0129936
0.0126788
0.0123716
0.0120718
0.0117792
0.0114936
0.0112149
0.0109428
0.0106774
0.0104183
0.0101654
0.00991867
0.00967785
0.00944285
0.00921351
0.0089897
0.00877129
0.00855816
0.00835017
0.00814721
0.00794915
0.00775587
0.00756727
0.00738323
0.00720364
0.0070284
0.0068574
0.00669053
0.00652771
0.00636883
0.0062138
0.00606253
0.00591492
0.00577089
0.00563035
0.00549323
0.00535942
0.00522887
0.00510148
0.00497718
0.00485591
0.00473757
0.00462211
0.00450946
0.00439954
0.00429229
0.00418765
0.00408555
0.00398593
0.00388873
0.0037939
0.00370138
0.0036111
0.00352302
0.00343708
0.00335324
0.00327143
0.00319161
0.00311374
0.00303777
0.00296364
0.00289132
0.00282076
0.00275191
0.00268475
0.00261922
0.00255528
0.00249291
0.00243205
0.00237268
0.00231475
0.00225824
0.0022031
0.00214931
0.00209683
0.00204562
0.00199567
0.00194693
0.00189939
0.001853
0.00180774
0.00176359
0.00172051
0.00167849
0.00163749
0.00159749
0.00155847
0.00152039
0.00148325
0.00144701
0.00141166
0.00137717
0.00134352
0.0013107
0.00127867
0.00124743
0.00121695
0.00118721
0.0011582
0.0011299
0.00110229
0.00107535
0.00104907
0.00102343
0.000998417
0.000974016
0.00095021
0.000926986
0.000904329
0.000882225
0.000860661
0.000839623
0.0008191
0.000799078
0.000779544
0.000760488
0.000741898
0.000723761
0.000706068
0.000688807
0.000671967
0.000655539
0.000639512
0.000623877
0.000608624
0.000593743
0.000579226
0.000565064
0.000551248
0.000537769
0.00052462
0.000511792
0.000499277
0.000487069
0.000475158
0.000463539
0.000452204
0.000441146
0.000430358
0.000419834
0.000409567
0.000399551
0.00038978
0.000380248
0.000370949
0.000361878
0.000353028
0.000344395
0.000335973
0.000327757
0.000319743
0.000311924
0.000304298
0.000296858
0.0002896
0.000282521
0.000275615
0.000268879
0.000262308
0.000255899
0.000249648
0.000243551
0.000237605
0.000231806
0.00022615
0.000220635
0.000215258
0.000210014
0.000204902
0.000199919
0.000195062
0.000190329
0.000185717
0.000181224
0.000176848
0.000172587
0.000168439
0.000164403
0.000160478
0.000156662
0.000152955
0.000149355
0.000145864
0.00014248
0.000139205
0.000136038
0.000132982
0.000130037
0.000127207
0.000124494
0.000121902
0.000119435
0.000117098
0.000114898
0.000112841
0.000110935
0.00010919
0.000107617
0.000106228
0.000105034
0.000104051
0.000103293
0.000102775
0.00010251
)
;
    }
    Wall
    {
        type            calculated;
        value           nonuniform List<scalar> 
400
(
0.723392
0.709436
0.699198
0.689839
0.680945
0.67248
0.664345
0.656451
0.648735
0.641153
0.633669
0.626259
0.618901
0.611582
0.604288
0.597012
0.589747
0.58249
0.575236
0.567986
0.560737
0.553491
0.546249
0.539011
0.531779
0.524555
0.517341
0.510141
0.502955
0.495786
0.488637
0.481511
0.474409
0.467335
0.460291
0.453279
0.446301
0.439361
0.432459
0.425599
0.418783
0.412012
0.405289
0.398615
0.391993
0.385423
0.378909
0.372451
0.366051
0.35971
0.35343
0.347212
0.341058
0.334967
0.328943
0.322985
0.317094
0.311272
0.305518
0.299835
0.294221
0.288679
0.283208
0.277809
0.272482
0.267227
0.262046
0.256937
0.251901
0.246938
0.242048
0.237231
0.232488
0.227817
0.223219
0.218693
0.214239
0.209857
0.205547
0.201307
0.197139
0.19304
0.189011
0.185052
0.181161
0.177338
0.173583
0.169895
0.166273
0.162717
0.159225
0.155798
0.152434
0.149133
0.145895
0.142717
0.1396
0.136543
0.133545
0.130606
0.127723
0.124898
0.122128
0.119413
0.116753
0.114146
0.111591
0.109089
0.106637
0.104236
0.101884
0.0995809
0.0973254
0.0951169
0.0929547
0.0908379
0.0887657
0.0867374
0.0847522
0.0828094
0.0809081
0.0790476
0.0772272
0.0754461
0.0737037
0.0719991
0.0703318
0.0687008
0.0671057
0.0655456
0.06402
0.062528
0.0610691
0.0596427
0.058248
0.0568845
0.0555514
0.0542483
0.0529744
0.0517293
0.0505122
0.0493227
0.0481601
0.0470239
0.0459135
0.0448284
0.0437681
0.042732
0.0417197
0.0407306
0.0397642
0.03882
0.0378976
0.0369965
0.0361162
0.0352563
0.0344163
0.0335959
0.0327944
0.0320117
0.0312471
0.0305004
0.0297711
0.0290589
0.0283633
0.027684
0.0270207
0.0263729
0.0257404
0.0251227
0.0245196
0.0239307
0.0233557
0.0227943
0.0222461
0.0217109
0.0211884
0.0206782
0.0201801
0.0196939
0.0192192
0.0187558
0.0183034
0.0178617
0.0174306
0.0170097
0.0165989
0.0161979
0.0158065
0.0154244
0.0150514
0.0146874
0.014332
0.0139852
0.0136467
0.0133162
0.0129938
0.012679
0.0123718
0.012072
0.0117793
0.0114938
0.011215
0.010943
0.0106775
0.0104184
0.0101656
0.00991882
0.009678
0.00944299
0.00921365
0.00898984
0.00877143
0.00855829
0.0083503
0.00814733
0.00794927
0.007756
0.00756739
0.00738335
0.00720376
0.00702851
0.00685751
0.00669064
0.00652782
0.00636894
0.0062139
0.00606263
0.00591502
0.00577099
0.00563045
0.00549332
0.00535951
0.00522896
0.00510157
0.00497727
0.00485599
0.00473765
0.00462219
0.00450953
0.00439961
0.00429236
0.00418772
0.00408562
0.003986
0.0038888
0.00379397
0.00370144
0.00361116
0.00352308
0.00343714
0.0033533
0.00327149
0.00319167
0.0031138
0.00303782
0.00296369
0.00289137
0.00282081
0.00275196
0.0026848
0.00261927
0.00255533
0.00249295
0.0024321
0.00237272
0.0023148
0.00225828
0.00220314
0.00214935
0.00209686
0.00204566
0.00199571
0.00194697
0.00189942
0.00185303
0.00180778
0.00176362
0.00172055
0.00167852
0.00163752
0.00159752
0.00155849
0.00152042
0.00148328
0.00144704
0.00141169
0.0013772
0.00134355
0.00131072
0.0012787
0.00124745
0.00121697
0.00118723
0.00115822
0.00112992
0.00110231
0.00107537
0.00104909
0.00102345
0.000998436
0.000974034
0.000950228
0.000927003
0.000904346
0.000882241
0.000860677
0.000839639
0.000819115
0.000799093
0.000779559
0.000760503
0.000741912
0.000723775
0.000706081
0.00068882
0.00067198
0.000655551
0.000639524
0.000623889
0.000608635
0.000593754
0.000579237
0.000565074
0.000551258
0.000537779
0.000524629
0.000511801
0.000499287
0.000487078
0.000475167
0.000463548
0.000452212
0.000441154
0.000430366
0.000419842
0.000409574
0.000399558
0.000389787
0.000380255
0.000370956
0.000361884
0.000353034
0.000344401
0.000335979
0.000327763
0.000319748
0.00031193
0.000304303
0.000296863
0.000289605
0.000282526
0.00027562
0.000268883
0.000262313
0.000255904
0.000249652
0.000243555
0.000237609
0.00023181
0.000226154
0.000220639
0.000215261
0.000210018
0.000204906
0.000199923
0.000195066
0.000190332
0.00018572
0.000181227
0.000176851
0.000172589
0.000168442
0.000164406
0.00016048
0.000156664
0.000152957
0.000149358
0.000145866
0.000142482
0.000139207
0.00013604
0.000132984
0.000130039
0.000127209
0.000124496
0.000121904
0.000119437
0.0001171
0.000114899
0.000112842
0.000110937
0.000109192
0.000107619
0.000106229
0.000105036
0.000104053
0.000103295
0.000102776
0.000102512
)
;
    }
}


// ************************************************************************* //
