/*--------------------------------*- C++ -*----------------------------------*\
  =========                 |
  \\      /  F ield         | OpenFOAM: The Open Source CFD Toolbox
   \\    /   O peration     | Website:  https://openfoam.org
    \\  /    A nd           | Version:  dev
     \\/     M anipulation  |
\*---------------------------------------------------------------------------*/
FoamFile
{
    format      ascii;
    class       volScalarField;
    location    "0.54";
    object      Exp1;
}
// * * * * * * * * * * * * * * * * * * * * * * * * * * * * * * * * * * * * * //

dimensions      [0 0 0 0 0 0 0];

internalField   uniform 0;

boundaryField
{
    frontAndBack
    {
        type            empty;
    }
    inlet
    {
        type            calculated;
        value           uniform 0;
    }
    outlet
    {
        type            calculated;
        value           uniform 0;
    }
    substrate
    {
        type            calculated;
        value           nonuniform List<scalar> 
400
(
5.86243e-14
1.8672e-13
3.27643e-13
4.80799e-13
6.46288e-13
8.24681e-13
1.01653e-12
1.22243e-12
1.44303e-12
1.67904e-12
1.93122e-12
2.20035e-12
2.48727e-12
2.79281e-12
3.11785e-12
3.46327e-12
3.82997e-12
4.21887e-12
4.63089e-12
5.06698e-12
5.5281e-12
6.01521e-12
6.52931e-12
7.07141e-12
7.64252e-12
8.24369e-12
8.87599e-12
9.5405e-12
1.02383e-11
1.09706e-11
1.17384e-11
1.25431e-11
1.33857e-11
1.42675e-11
1.51897e-11
1.61537e-11
1.71607e-11
1.82121e-11
1.93092e-11
2.04535e-11
2.16463e-11
2.28892e-11
2.41835e-11
2.5531e-11
2.6933e-11
2.83912e-11
2.99073e-11
3.14829e-11
3.31197e-11
3.48195e-11
3.6584e-11
3.84152e-11
4.03148e-11
4.22848e-11
4.43272e-11
4.6444e-11
4.86372e-11
5.0909e-11
5.32615e-11
5.56969e-11
5.82176e-11
6.08257e-11
6.35238e-11
6.63142e-11
6.91994e-11
7.21821e-11
7.52647e-11
7.84501e-11
8.17409e-11
8.51399e-11
8.86501e-11
9.22744e-11
9.60159e-11
9.98775e-11
1.03863e-10
1.07974e-10
1.12216e-10
1.16591e-10
1.21103e-10
1.25755e-10
1.30552e-10
1.35496e-10
1.40592e-10
1.45844e-10
1.51256e-10
1.56831e-10
1.62574e-10
1.6849e-10
1.74582e-10
1.80856e-10
1.87315e-10
1.93965e-10
2.00811e-10
2.07857e-10
2.15109e-10
2.22571e-10
2.3025e-10
2.3815e-10
2.46277e-10
2.54636e-10
2.63235e-10
2.72077e-10
2.81171e-10
2.90521e-10
3.00134e-10
3.10017e-10
3.20176e-10
3.30618e-10
3.4135e-10
3.52378e-10
3.63712e-10
3.75356e-10
3.8732e-10
3.99611e-10
4.12236e-10
4.25205e-10
4.38524e-10
4.52202e-10
4.66248e-10
4.80671e-10
4.95479e-10
5.10681e-10
5.26287e-10
5.42306e-10
5.58748e-10
5.75622e-10
5.92939e-10
6.10709e-10
6.28941e-10
6.47647e-10
6.66838e-10
6.86524e-10
7.06717e-10
7.27428e-10
7.48668e-10
7.7045e-10
7.92785e-10
8.15686e-10
8.39165e-10
8.63236e-10
8.87909e-10
9.132e-10
9.39122e-10
9.65687e-10
9.9291e-10
1.0208e-09
1.04938e-09
1.07867e-09
1.10866e-09
1.13939e-09
1.17086e-09
1.2031e-09
1.23611e-09
1.26991e-09
1.30452e-09
1.33996e-09
1.37624e-09
1.41338e-09
1.4514e-09
1.4903e-09
1.53013e-09
1.57088e-09
1.61257e-09
1.65524e-09
1.69888e-09
1.74354e-09
1.78921e-09
1.83593e-09
1.88371e-09
1.93257e-09
1.98253e-09
2.03362e-09
2.08584e-09
2.13924e-09
2.19381e-09
2.2496e-09
2.30661e-09
2.36487e-09
2.4244e-09
2.48523e-09
2.54738e-09
2.61086e-09
2.67571e-09
2.74194e-09
2.80958e-09
2.87866e-09
2.94919e-09
3.0212e-09
3.09472e-09
3.16977e-09
3.24637e-09
3.32455e-09
3.40433e-09
3.48574e-09
3.56881e-09
3.65355e-09
3.74e-09
3.82818e-09
3.91812e-09
4.00984e-09
4.10337e-09
4.19874e-09
4.29597e-09
4.39508e-09
4.49611e-09
4.59909e-09
4.70403e-09
4.81096e-09
4.91992e-09
5.03093e-09
5.14401e-09
5.25919e-09
5.37651e-09
5.49598e-09
5.61764e-09
5.74151e-09
5.86761e-09
5.99598e-09
6.12664e-09
6.25962e-09
6.39495e-09
6.53265e-09
6.67275e-09
6.81527e-09
6.96024e-09
7.10769e-09
7.25765e-09
7.41013e-09
7.56517e-09
7.72279e-09
7.88302e-09
8.04587e-09
8.21138e-09
8.37957e-09
8.55047e-09
8.72409e-09
8.90047e-09
9.07962e-09
9.26157e-09
9.44633e-09
9.63394e-09
9.82442e-09
1.00178e-08
1.0214e-08
1.04132e-08
1.06154e-08
1.08205e-08
1.10286e-08
1.12397e-08
1.14538e-08
1.16709e-08
1.18911e-08
1.21144e-08
1.23408e-08
1.25702e-08
1.28028e-08
1.30385e-08
1.32774e-08
1.35194e-08
1.37645e-08
1.40129e-08
1.42644e-08
1.45191e-08
1.47771e-08
1.50382e-08
1.53025e-08
1.55701e-08
1.58409e-08
1.61149e-08
1.63922e-08
1.66727e-08
1.69564e-08
1.72434e-08
1.75335e-08
1.7827e-08
1.81236e-08
1.84235e-08
1.87266e-08
1.90329e-08
1.93424e-08
1.96551e-08
1.9971e-08
2.029e-08
2.06122e-08
2.09376e-08
2.12661e-08
2.15977e-08
2.19324e-08
2.22702e-08
2.26111e-08
2.2955e-08
2.33019e-08
2.36518e-08
2.40047e-08
2.43605e-08
2.47192e-08
2.50808e-08
2.54453e-08
2.58126e-08
2.61827e-08
2.65556e-08
2.69311e-08
2.73094e-08
2.76903e-08
2.80738e-08
2.84599e-08
2.88485e-08
2.92395e-08
2.9633e-08
3.00289e-08
3.04272e-08
3.08277e-08
3.12304e-08
3.16354e-08
3.20424e-08
3.24516e-08
3.28627e-08
3.32758e-08
3.36909e-08
3.41077e-08
3.45264e-08
3.49467e-08
3.53687e-08
3.57923e-08
3.62174e-08
3.66439e-08
3.70719e-08
3.75011e-08
3.79315e-08
3.83632e-08
3.87959e-08
3.92296e-08
3.96642e-08
4.00997e-08
4.0536e-08
4.09729e-08
4.14105e-08
4.18486e-08
4.22871e-08
4.2726e-08
4.31652e-08
4.36045e-08
4.40439e-08
4.44833e-08
4.49226e-08
4.53617e-08
4.58006e-08
4.62391e-08
4.6677e-08
4.71145e-08
4.75512e-08
4.79872e-08
4.84223e-08
4.88563e-08
4.92893e-08
4.97211e-08
5.01516e-08
5.05806e-08
5.10081e-08
5.14339e-08
5.18579e-08
5.22799e-08
5.26999e-08
5.31177e-08
5.35331e-08
5.39459e-08
5.43561e-08
5.47635e-08
5.51678e-08
5.55689e-08
5.59665e-08
5.63605e-08
5.67507e-08
5.71367e-08
5.75182e-08
5.78951e-08
5.82669e-08
5.86333e-08
5.8994e-08
5.93485e-08
5.96963e-08
6.00369e-08
6.03698e-08
6.06944e-08
6.10099e-08
6.13157e-08
6.16108e-08
6.18943e-08
6.21653e-08
6.24226e-08
6.26649e-08
6.2891e-08
6.30992e-08
6.32879e-08
6.34555e-08
6.35999e-08
6.37193e-08
6.38115e-08
6.38747e-08
6.3907e-08
)
;
    }
    Wall
    {
        type            calculated;
        value           nonuniform List<scalar> 
400
(
5.86232e-14
1.86716e-13
3.27636e-13
4.8079e-13
6.46274e-13
8.24662e-13
1.01651e-12
1.2224e-12
1.44299e-12
1.67899e-12
1.93116e-12
2.20028e-12
2.48718e-12
2.79272e-12
3.11774e-12
3.46315e-12
3.82983e-12
4.21871e-12
4.63071e-12
5.06678e-12
5.52787e-12
6.01497e-12
6.52905e-12
7.07112e-12
7.64221e-12
8.24337e-12
8.87564e-12
9.54013e-12
1.02379e-11
1.09702e-11
1.1738e-11
1.25426e-11
1.33852e-11
1.4267e-11
1.51892e-11
1.61531e-11
1.71601e-11
1.82115e-11
1.93086e-11
2.04528e-11
2.16456e-11
2.28884e-11
2.41827e-11
2.55301e-11
2.69321e-11
2.83903e-11
2.99063e-11
3.14819e-11
3.31186e-11
3.48184e-11
3.65829e-11
3.8414e-11
4.03136e-11
4.22835e-11
4.43259e-11
4.64426e-11
4.86357e-11
5.09075e-11
5.32599e-11
5.56953e-11
5.82158e-11
6.08239e-11
6.35219e-11
6.63123e-11
6.91974e-11
7.218e-11
7.52626e-11
7.84479e-11
8.17386e-11
8.51376e-11
8.86477e-11
9.22719e-11
9.60133e-11
9.98748e-11
1.0386e-10
1.07971e-10
1.12213e-10
1.16588e-10
1.211e-10
1.25752e-10
1.30548e-10
1.35493e-10
1.40589e-10
1.4584e-10
1.51252e-10
1.56827e-10
1.6257e-10
1.68485e-10
1.74578e-10
1.80851e-10
1.8731e-10
1.9396e-10
2.00806e-10
2.07852e-10
2.15103e-10
2.22566e-10
2.30244e-10
2.38144e-10
2.4627e-10
2.5463e-10
2.63228e-10
2.7207e-10
2.81163e-10
2.90513e-10
3.00126e-10
3.10009e-10
3.20167e-10
3.30609e-10
3.41341e-10
3.5237e-10
3.63702e-10
3.75347e-10
3.87311e-10
3.99601e-10
4.12226e-10
4.25194e-10
4.38513e-10
4.52191e-10
4.66236e-10
4.80659e-10
4.95466e-10
5.10668e-10
5.26274e-10
5.42293e-10
5.58734e-10
5.75608e-10
5.92925e-10
6.10694e-10
6.28926e-10
6.47632e-10
6.66822e-10
6.86508e-10
7.067e-10
7.2741e-10
7.4865e-10
7.70431e-10
7.92766e-10
8.15667e-10
8.39146e-10
8.63215e-10
8.87889e-10
9.13179e-10
9.391e-10
9.65664e-10
9.92886e-10
1.02078e-09
1.04936e-09
1.07864e-09
1.10864e-09
1.13936e-09
1.17084e-09
1.20307e-09
1.23608e-09
1.26988e-09
1.30449e-09
1.33993e-09
1.37621e-09
1.41335e-09
1.45136e-09
1.49027e-09
1.53009e-09
1.57084e-09
1.61254e-09
1.6552e-09
1.69885e-09
1.7435e-09
1.78917e-09
1.83589e-09
1.88366e-09
1.93252e-09
1.98249e-09
2.03357e-09
2.0858e-09
2.13919e-09
2.19376e-09
2.24955e-09
2.30656e-09
2.36482e-09
2.42435e-09
2.48518e-09
2.54732e-09
2.6108e-09
2.67565e-09
2.74188e-09
2.80952e-09
2.8786e-09
2.94913e-09
3.02114e-09
3.09465e-09
3.1697e-09
3.2463e-09
3.32447e-09
3.40425e-09
3.48566e-09
3.56873e-09
3.65347e-09
3.73992e-09
3.8281e-09
3.91804e-09
4.00976e-09
4.10328e-09
4.19865e-09
4.29587e-09
4.39499e-09
4.49602e-09
4.59899e-09
4.70392e-09
4.81086e-09
4.91981e-09
5.03082e-09
5.1439e-09
5.25908e-09
5.37639e-09
5.49586e-09
5.61752e-09
5.74138e-09
5.86749e-09
5.99585e-09
6.12651e-09
6.25949e-09
6.39482e-09
6.53251e-09
6.67261e-09
6.81513e-09
6.9601e-09
7.10754e-09
7.2575e-09
7.40998e-09
7.56501e-09
7.72263e-09
7.88285e-09
8.0457e-09
8.21121e-09
8.3794e-09
8.55029e-09
8.72391e-09
8.90028e-09
9.07943e-09
9.26138e-09
9.44614e-09
9.63375e-09
9.82422e-09
1.00176e-08
1.02138e-08
1.0413e-08
1.06152e-08
1.08203e-08
1.10283e-08
1.12394e-08
1.14535e-08
1.16707e-08
1.18909e-08
1.21142e-08
1.23405e-08
1.257e-08
1.28026e-08
1.30383e-08
1.32771e-08
1.35191e-08
1.37643e-08
1.40126e-08
1.42641e-08
1.45188e-08
1.47768e-08
1.50379e-08
1.53022e-08
1.55698e-08
1.58406e-08
1.61146e-08
1.63919e-08
1.66724e-08
1.69561e-08
1.7243e-08
1.75332e-08
1.78266e-08
1.81233e-08
1.84231e-08
1.87262e-08
1.90325e-08
1.9342e-08
1.96547e-08
1.99706e-08
2.02896e-08
2.06118e-08
2.09372e-08
2.12657e-08
2.15973e-08
2.1932e-08
2.22698e-08
2.26106e-08
2.29545e-08
2.33014e-08
2.36513e-08
2.40042e-08
2.436e-08
2.47188e-08
2.50804e-08
2.54448e-08
2.58121e-08
2.61822e-08
2.65551e-08
2.69306e-08
2.73089e-08
2.76898e-08
2.80733e-08
2.84594e-08
2.88479e-08
2.9239e-08
2.96325e-08
3.00284e-08
3.04266e-08
3.08271e-08
3.12299e-08
3.16348e-08
3.20419e-08
3.2451e-08
3.28621e-08
3.32753e-08
3.36903e-08
3.41071e-08
3.45258e-08
3.49461e-08
3.53681e-08
3.57917e-08
3.62168e-08
3.66433e-08
3.70712e-08
3.75005e-08
3.79309e-08
3.83625e-08
3.87952e-08
3.92289e-08
3.96636e-08
4.00991e-08
4.05353e-08
4.09723e-08
4.14098e-08
4.18479e-08
4.22865e-08
4.27253e-08
4.31645e-08
4.36038e-08
4.40432e-08
4.44826e-08
4.49219e-08
4.5361e-08
4.57999e-08
4.62384e-08
4.66763e-08
4.71137e-08
4.75505e-08
4.79864e-08
4.84215e-08
4.88556e-08
4.92886e-08
4.97204e-08
5.01508e-08
5.05799e-08
5.10073e-08
5.14331e-08
5.18571e-08
5.22791e-08
5.26991e-08
5.31169e-08
5.35323e-08
5.39452e-08
5.43554e-08
5.47627e-08
5.5167e-08
5.55681e-08
5.59658e-08
5.63598e-08
5.67499e-08
5.71359e-08
5.75174e-08
5.78943e-08
5.82661e-08
5.86325e-08
5.89932e-08
5.93477e-08
5.96955e-08
6.00361e-08
6.0369e-08
6.06936e-08
6.10092e-08
6.13149e-08
6.161e-08
6.18936e-08
6.21646e-08
6.24219e-08
6.26643e-08
6.28903e-08
6.30985e-08
6.32873e-08
6.34548e-08
6.35993e-08
6.37187e-08
6.38111e-08
6.38743e-08
6.39065e-08
)
;
    }
}


// ************************************************************************* //
