/*--------------------------------*- C++ -*----------------------------------*\
  =========                 |
  \\      /  F ield         | OpenFOAM: The Open Source CFD Toolbox
   \\    /   O peration     | Website:  https://openfoam.org
    \\  /    A nd           | Version:  dev
     \\/     M anipulation  |
\*---------------------------------------------------------------------------*/
FoamFile
{
    format      ascii;
    class       volScalarField;
    location    "0.54";
    object      N1;
}
// * * * * * * * * * * * * * * * * * * * * * * * * * * * * * * * * * * * * * //

dimensions      [0 0 0 0 0 0 0];

internalField   nonuniform List<scalar> 
8000
(
4.45103e-13
1.41802e-12
2.4887e-12
3.65265e-12
4.91066e-12
6.26708e-12
7.72617e-12
9.29242e-12
1.09708e-11
1.27669e-11
1.46863e-11
1.67352e-11
1.89199e-11
2.12468e-11
2.37227e-11
2.63543e-11
2.91486e-11
3.21125e-11
3.52532e-11
3.8578e-11
4.20942e-11
4.58093e-11
4.97309e-11
5.38668e-11
5.82248e-11
6.2813e-11
6.76395e-11
7.27127e-11
7.80411e-11
8.36335e-11
8.94986e-11
9.56456e-11
1.02084e-10
1.08822e-10
1.15871e-10
1.2324e-10
1.30939e-10
1.38978e-10
1.47369e-10
1.56121e-10
1.65246e-10
1.74755e-10
1.84659e-10
1.94971e-10
2.05702e-10
2.16865e-10
2.28471e-10
2.40536e-10
2.5307e-10
2.66088e-10
2.79604e-10
2.93631e-10
3.08185e-10
3.2328e-10
3.38931e-10
3.55154e-10
3.71964e-10
3.89378e-10
4.07413e-10
4.26086e-10
4.45413e-10
4.65414e-10
4.86105e-10
5.07507e-10
5.29638e-10
5.52518e-10
5.76167e-10
6.00607e-10
6.25857e-10
6.51939e-10
6.78877e-10
7.06692e-10
7.35408e-10
7.65049e-10
7.95639e-10
8.27203e-10
8.59767e-10
8.93357e-10
9.28e-10
9.63723e-10
1.00056e-09
1.03852e-09
1.07766e-09
1.118e-09
1.15956e-09
1.20238e-09
1.2465e-09
1.29194e-09
1.33874e-09
1.38693e-09
1.43656e-09
1.48765e-09
1.54024e-09
1.59438e-09
1.6501e-09
1.70744e-09
1.76644e-09
1.82715e-09
1.8896e-09
1.95385e-09
2.01993e-09
2.08788e-09
2.15777e-09
2.22963e-09
2.30352e-09
2.37948e-09
2.45756e-09
2.53783e-09
2.62032e-09
2.70509e-09
2.79221e-09
2.88173e-09
2.9737e-09
3.06818e-09
3.16524e-09
3.26493e-09
3.36733e-09
3.47248e-09
3.58047e-09
3.69135e-09
3.8052e-09
3.92208e-09
4.04207e-09
4.16523e-09
4.29164e-09
4.42139e-09
4.55453e-09
4.69116e-09
4.83135e-09
4.97519e-09
5.12275e-09
5.27412e-09
5.42938e-09
5.58864e-09
5.75196e-09
5.91945e-09
6.0912e-09
6.2673e-09
6.44785e-09
6.63294e-09
6.82268e-09
7.01716e-09
7.21649e-09
7.42077e-09
7.63012e-09
7.84463e-09
8.06441e-09
8.28959e-09
8.52027e-09
8.75657e-09
8.9986e-09
9.24648e-09
9.50034e-09
9.7603e-09
1.00265e-08
1.0299e-08
1.0578e-08
1.08636e-08
1.1156e-08
1.14552e-08
1.17615e-08
1.20748e-08
1.23955e-08
1.27236e-08
1.30593e-08
1.34027e-08
1.3754e-08
1.41133e-08
1.44807e-08
1.48565e-08
1.52407e-08
1.56336e-08
1.60353e-08
1.64459e-08
1.68656e-08
1.72947e-08
1.77331e-08
1.81812e-08
1.86391e-08
1.91069e-08
1.95848e-08
2.00731e-08
2.05718e-08
2.10812e-08
2.16014e-08
2.21327e-08
2.26751e-08
2.3229e-08
2.37944e-08
2.43716e-08
2.49607e-08
2.55619e-08
2.61755e-08
2.68017e-08
2.74405e-08
2.80923e-08
2.87572e-08
2.94354e-08
3.01271e-08
3.08325e-08
3.15519e-08
3.22853e-08
3.30331e-08
3.37954e-08
3.45724e-08
3.53644e-08
3.61715e-08
3.69939e-08
3.78319e-08
3.86856e-08
3.95553e-08
4.04412e-08
4.13435e-08
4.22624e-08
4.3198e-08
4.41507e-08
4.51206e-08
4.61079e-08
4.71128e-08
4.81355e-08
4.91763e-08
5.02354e-08
5.13129e-08
5.2409e-08
5.3524e-08
5.4658e-08
5.58113e-08
5.69841e-08
5.81765e-08
5.93888e-08
6.0621e-08
6.18736e-08
6.31465e-08
6.44401e-08
6.57544e-08
6.70898e-08
6.84463e-08
6.98241e-08
7.12235e-08
7.26445e-08
7.40874e-08
7.55524e-08
7.70395e-08
7.8549e-08
8.0081e-08
8.16356e-08
8.3213e-08
8.48135e-08
8.6437e-08
8.80837e-08
8.97538e-08
9.14474e-08
9.31646e-08
9.49056e-08
9.66704e-08
9.84592e-08
1.00272e-07
1.02109e-07
1.0397e-07
1.05856e-07
1.07766e-07
1.097e-07
1.11659e-07
1.13643e-07
1.15651e-07
1.17685e-07
1.19742e-07
1.21825e-07
1.23933e-07
1.26065e-07
1.28222e-07
1.30404e-07
1.32611e-07
1.34843e-07
1.371e-07
1.39381e-07
1.41688e-07
1.44019e-07
1.46375e-07
1.48755e-07
1.5116e-07
1.53589e-07
1.56043e-07
1.58521e-07
1.61024e-07
1.6355e-07
1.66101e-07
1.68675e-07
1.71273e-07
1.73894e-07
1.76539e-07
1.79207e-07
1.81898e-07
1.84612e-07
1.87349e-07
1.90108e-07
1.92889e-07
1.95692e-07
1.98517e-07
2.01364e-07
2.04231e-07
2.0712e-07
2.10029e-07
2.12958e-07
2.15908e-07
2.18877e-07
2.21866e-07
2.24874e-07
2.279e-07
2.30945e-07
2.34007e-07
2.37088e-07
2.40185e-07
2.433e-07
2.4643e-07
2.49577e-07
2.52739e-07
2.55917e-07
2.59108e-07
2.62314e-07
2.65534e-07
2.68767e-07
2.72013e-07
2.7527e-07
2.7854e-07
2.8182e-07
2.85111e-07
2.88413e-07
2.91723e-07
2.95043e-07
2.98371e-07
3.01706e-07
3.05049e-07
3.08399e-07
3.11754e-07
3.15114e-07
3.1848e-07
3.21849e-07
3.25222e-07
3.28597e-07
3.31974e-07
3.35353e-07
3.38733e-07
3.42112e-07
3.45491e-07
3.48868e-07
3.52243e-07
3.55616e-07
3.58984e-07
3.62348e-07
3.65707e-07
3.6906e-07
3.72406e-07
3.75745e-07
3.79075e-07
3.82396e-07
3.85707e-07
3.89006e-07
3.92294e-07
3.95569e-07
3.9883e-07
4.02075e-07
4.05305e-07
4.08518e-07
4.11713e-07
4.14889e-07
4.18043e-07
4.21176e-07
4.24286e-07
4.2737e-07
4.30429e-07
4.33459e-07
4.36459e-07
4.39428e-07
4.42363e-07
4.45261e-07
4.48121e-07
4.50939e-07
4.53713e-07
4.56439e-07
4.59114e-07
4.61734e-07
4.64294e-07
4.6679e-07
4.69217e-07
4.71568e-07
4.73838e-07
4.76019e-07
4.78103e-07
4.80082e-07
4.81946e-07
4.83684e-07
4.85285e-07
4.86737e-07
4.88025e-07
4.89136e-07
4.90054e-07
4.90764e-07
4.9125e-07
4.91498e-07
4.3603e-13
1.39781e-12
2.45946e-12
3.61944e-12
4.87765e-12
6.23698e-12
7.70118e-12
9.27455e-12
1.0962e-11
1.27691e-11
1.47015e-11
1.67656e-11
1.89678e-11
2.13146e-11
2.38129e-11
2.64696e-11
2.92919e-11
3.22869e-11
3.5462e-11
3.88246e-11
4.23823e-11
4.61428e-11
5.0114e-11
5.43037e-11
5.87202e-11
6.33716e-11
6.82666e-11
7.34136e-11
7.88214e-11
8.44991e-11
9.04558e-11
9.67008e-11
1.03244e-10
1.10094e-10
1.17263e-10
1.24759e-10
1.32593e-10
1.40777e-10
1.4932e-10
1.58234e-10
1.67531e-10
1.77221e-10
1.87318e-10
1.97832e-10
2.08777e-10
2.20166e-10
2.3201e-10
2.44325e-10
2.57122e-10
2.70417e-10
2.84223e-10
2.98555e-10
3.13429e-10
3.28858e-10
3.4486e-10
3.6145e-10
3.78644e-10
3.9646e-10
4.14914e-10
4.34024e-10
4.53808e-10
4.74285e-10
4.95474e-10
5.17394e-10
5.40064e-10
5.63506e-10
5.87739e-10
6.12786e-10
6.38668e-10
6.65408e-10
6.93028e-10
7.21551e-10
7.51003e-10
7.81407e-10
8.12789e-10
8.45175e-10
8.7859e-10
9.13063e-10
9.4862e-10
9.8529e-10
1.0231e-09
1.06209e-09
1.10227e-09
1.1437e-09
1.18638e-09
1.23037e-09
1.27568e-09
1.32236e-09
1.37045e-09
1.41997e-09
1.47096e-09
1.52347e-09
1.57752e-09
1.63317e-09
1.69044e-09
1.74938e-09
1.81004e-09
1.87245e-09
1.93667e-09
2.00272e-09
2.07067e-09
2.14056e-09
2.21243e-09
2.28634e-09
2.36233e-09
2.44046e-09
2.52078e-09
2.60334e-09
2.6882e-09
2.77542e-09
2.86505e-09
2.95714e-09
3.05177e-09
3.14899e-09
3.24886e-09
3.35145e-09
3.45682e-09
3.56503e-09
3.67617e-09
3.79028e-09
3.90745e-09
4.02775e-09
4.15125e-09
4.27802e-09
4.40814e-09
4.54169e-09
4.67875e-09
4.81939e-09
4.96371e-09
5.11178e-09
5.26369e-09
5.41953e-09
5.57938e-09
5.74334e-09
5.91149e-09
6.08394e-09
6.26078e-09
6.4421e-09
6.628e-09
6.81859e-09
7.01396e-09
7.21422e-09
7.41948e-09
7.62984e-09
7.84542e-09
8.06632e-09
8.29266e-09
8.52455e-09
8.76211e-09
9.00546e-09
9.25472e-09
9.51002e-09
9.77147e-09
1.00392e-08
1.03134e-08
1.0594e-08
1.08814e-08
1.11756e-08
1.14767e-08
1.17849e-08
1.21004e-08
1.24232e-08
1.27535e-08
1.30914e-08
1.34372e-08
1.37909e-08
1.41528e-08
1.45229e-08
1.49014e-08
1.52885e-08
1.56843e-08
1.6089e-08
1.65028e-08
1.69258e-08
1.73582e-08
1.78002e-08
1.82519e-08
1.87135e-08
1.91852e-08
1.96672e-08
2.01596e-08
2.06626e-08
2.11764e-08
2.17013e-08
2.22372e-08
2.27846e-08
2.33435e-08
2.39141e-08
2.44967e-08
2.50913e-08
2.56984e-08
2.63179e-08
2.69501e-08
2.75953e-08
2.82535e-08
2.89251e-08
2.96102e-08
3.0309e-08
3.10218e-08
3.17487e-08
3.24899e-08
3.32457e-08
3.40163e-08
3.48018e-08
3.56025e-08
3.64186e-08
3.72503e-08
3.80979e-08
3.89614e-08
3.98413e-08
4.07375e-08
4.16505e-08
4.25803e-08
4.35273e-08
4.44916e-08
4.54734e-08
4.64729e-08
4.74904e-08
4.85261e-08
4.95802e-08
5.06529e-08
5.17444e-08
5.28549e-08
5.39847e-08
5.51339e-08
5.63027e-08
5.74914e-08
5.87002e-08
5.99292e-08
6.11787e-08
6.24489e-08
6.374e-08
6.50521e-08
6.63854e-08
6.77402e-08
6.91167e-08
7.0515e-08
7.19352e-08
7.33777e-08
7.48426e-08
7.633e-08
7.78401e-08
7.93731e-08
8.09292e-08
8.25085e-08
8.41112e-08
8.57373e-08
8.73872e-08
8.90609e-08
9.07586e-08
9.24804e-08
9.42264e-08
9.59968e-08
9.77917e-08
9.96112e-08
1.01455e-07
1.03324e-07
1.05218e-07
1.07137e-07
1.09081e-07
1.11051e-07
1.13045e-07
1.15065e-07
1.17111e-07
1.19181e-07
1.21278e-07
1.234e-07
1.25547e-07
1.2772e-07
1.29919e-07
1.32144e-07
1.34394e-07
1.3667e-07
1.38971e-07
1.41298e-07
1.43651e-07
1.46029e-07
1.48433e-07
1.50863e-07
1.53317e-07
1.55798e-07
1.58303e-07
1.60834e-07
1.63389e-07
1.6597e-07
1.68576e-07
1.71206e-07
1.73861e-07
1.76541e-07
1.79244e-07
1.81972e-07
1.84724e-07
1.875e-07
1.90299e-07
1.93122e-07
1.95968e-07
1.98836e-07
2.01728e-07
2.04642e-07
2.07578e-07
2.10536e-07
2.13515e-07
2.16516e-07
2.19538e-07
2.22581e-07
2.25644e-07
2.28727e-07
2.3183e-07
2.34952e-07
2.38093e-07
2.41253e-07
2.44431e-07
2.47626e-07
2.50839e-07
2.54069e-07
2.57316e-07
2.60579e-07
2.63857e-07
2.6715e-07
2.70458e-07
2.7378e-07
2.77116e-07
2.80465e-07
2.83826e-07
2.872e-07
2.90585e-07
2.93981e-07
2.97388e-07
3.00804e-07
3.04229e-07
3.07664e-07
3.11106e-07
3.14556e-07
3.18012e-07
3.21475e-07
3.24943e-07
3.28416e-07
3.31894e-07
3.35375e-07
3.38859e-07
3.42345e-07
3.45832e-07
3.4932e-07
3.52808e-07
3.56296e-07
3.59782e-07
3.63266e-07
3.66747e-07
3.70224e-07
3.73697e-07
3.77164e-07
3.80626e-07
3.8408e-07
3.87527e-07
3.90965e-07
3.94394e-07
3.97812e-07
4.01219e-07
4.04613e-07
4.07994e-07
4.11361e-07
4.14713e-07
4.18048e-07
4.21366e-07
4.24665e-07
4.27945e-07
4.31203e-07
4.34439e-07
4.3765e-07
4.40837e-07
4.43996e-07
4.47126e-07
4.50226e-07
4.53293e-07
4.56325e-07
4.5932e-07
4.62275e-07
4.65188e-07
4.68055e-07
4.70873e-07
4.73639e-07
4.76348e-07
4.78996e-07
4.81578e-07
4.84089e-07
4.86523e-07
4.88873e-07
4.91132e-07
4.93292e-07
4.95344e-07
4.97278e-07
4.99083e-07
5.00747e-07
5.02258e-07
5.03601e-07
5.04761e-07
5.05722e-07
5.06467e-07
5.06979e-07
5.07243e-07
4.27868e-13
1.37268e-12
2.41464e-12
3.5568e-12
4.80081e-12
6.1491e-12
7.60491e-12
9.17224e-12
1.08558e-11
1.26609e-11
1.45934e-11
1.66594e-11
1.88654e-11
2.12181e-11
2.37244e-11
2.63913e-11
2.9226e-11
3.22359e-11
3.54284e-11
3.88111e-11
4.23917e-11
4.61781e-11
5.01784e-11
5.44005e-11
5.8853e-11
6.35443e-11
6.84829e-11
7.36779e-11
7.91381e-11
8.48728e-11
9.08914e-11
9.72035e-11
1.03819e-10
1.10748e-10
1.18e-10
1.25587e-10
1.33518e-10
1.41805e-10
1.5046e-10
1.59492e-10
1.68915e-10
1.7874e-10
1.88979e-10
1.99645e-10
2.1075e-10
2.22309e-10
2.34333e-10
2.46838e-10
2.59836e-10
2.73342e-10
2.87371e-10
3.01939e-10
3.17059e-10
3.32748e-10
3.49023e-10
3.65899e-10
3.83393e-10
4.01524e-10
4.20307e-10
4.39762e-10
4.59907e-10
4.80761e-10
5.02344e-10
5.24674e-10
5.47774e-10
5.71663e-10
5.96363e-10
6.21896e-10
6.48284e-10
6.7555e-10
7.03718e-10
7.32811e-10
7.62855e-10
7.93875e-10
8.25896e-10
8.58946e-10
8.9305e-10
9.28237e-10
9.64536e-10
1.00197e-09
1.04058e-09
1.08039e-09
1.12144e-09
1.16374e-09
1.20734e-09
1.25228e-09
1.29857e-09
1.34627e-09
1.3954e-09
1.44601e-09
1.49813e-09
1.55179e-09
1.60704e-09
1.66392e-09
1.72247e-09
1.78273e-09
1.84475e-09
1.90857e-09
1.97423e-09
2.04178e-09
2.11127e-09
2.18274e-09
2.25625e-09
2.33185e-09
2.40958e-09
2.4895e-09
2.57167e-09
2.65614e-09
2.74296e-09
2.83219e-09
2.9239e-09
3.01813e-09
3.11496e-09
3.21445e-09
3.31665e-09
3.42164e-09
3.52948e-09
3.64023e-09
3.75398e-09
3.87078e-09
3.99071e-09
4.11385e-09
4.24027e-09
4.37004e-09
4.50325e-09
4.63997e-09
4.78028e-09
4.92427e-09
5.07203e-09
5.22363e-09
5.37917e-09
5.53873e-09
5.70241e-09
5.8703e-09
6.04249e-09
6.21907e-09
6.40016e-09
6.58584e-09
6.77622e-09
6.9714e-09
7.17148e-09
7.37658e-09
7.5868e-09
7.80225e-09
8.02304e-09
8.2493e-09
8.48112e-09
8.71864e-09
8.96197e-09
9.21124e-09
9.46657e-09
9.72808e-09
9.9959e-09
1.02702e-08
1.0551e-08
1.08385e-08
1.11329e-08
1.14343e-08
1.17428e-08
1.20586e-08
1.23817e-08
1.27124e-08
1.30508e-08
1.33971e-08
1.37514e-08
1.41138e-08
1.44845e-08
1.48638e-08
1.52516e-08
1.56482e-08
1.60538e-08
1.64685e-08
1.68926e-08
1.7326e-08
1.77691e-08
1.8222e-08
1.86849e-08
1.9158e-08
1.96414e-08
2.01353e-08
2.06399e-08
2.11554e-08
2.1682e-08
2.22199e-08
2.27692e-08
2.33302e-08
2.3903e-08
2.44879e-08
2.5085e-08
2.56945e-08
2.63167e-08
2.69517e-08
2.75997e-08
2.8261e-08
2.89358e-08
2.96242e-08
3.03265e-08
3.10428e-08
3.17735e-08
3.25186e-08
3.32785e-08
3.40533e-08
3.48432e-08
3.56485e-08
3.64694e-08
3.73061e-08
3.81587e-08
3.90277e-08
3.9913e-08
4.08151e-08
4.1734e-08
4.26701e-08
4.36235e-08
4.45944e-08
4.55831e-08
4.65898e-08
4.76147e-08
4.86581e-08
4.97201e-08
5.0801e-08
5.19009e-08
5.30202e-08
5.4159e-08
5.53176e-08
5.64961e-08
5.76947e-08
5.89138e-08
6.01534e-08
6.14139e-08
6.26954e-08
6.3998e-08
6.53221e-08
6.66679e-08
6.80354e-08
6.9425e-08
7.08368e-08
7.2271e-08
7.37278e-08
7.52074e-08
7.671e-08
7.82357e-08
7.97847e-08
8.13573e-08
8.29535e-08
8.45736e-08
8.62177e-08
8.78859e-08
8.95785e-08
9.12956e-08
9.30372e-08
9.48036e-08
9.6595e-08
9.84113e-08
1.00253e-07
1.0212e-07
1.04012e-07
1.0593e-07
1.07873e-07
1.09842e-07
1.11837e-07
1.13857e-07
1.15904e-07
1.17977e-07
1.20076e-07
1.22201e-07
1.24352e-07
1.2653e-07
1.28733e-07
1.30964e-07
1.3322e-07
1.35503e-07
1.37812e-07
1.40148e-07
1.4251e-07
1.44899e-07
1.47314e-07
1.49755e-07
1.52222e-07
1.54716e-07
1.57235e-07
1.59781e-07
1.62353e-07
1.64951e-07
1.67575e-07
1.70224e-07
1.72899e-07
1.75599e-07
1.78325e-07
1.81076e-07
1.83851e-07
1.86652e-07
1.89478e-07
1.92327e-07
1.95202e-07
1.981e-07
2.01022e-07
2.03967e-07
2.06936e-07
2.09928e-07
2.12943e-07
2.15981e-07
2.19041e-07
2.22123e-07
2.25226e-07
2.28351e-07
2.31497e-07
2.34663e-07
2.3785e-07
2.41056e-07
2.44283e-07
2.47528e-07
2.50792e-07
2.54075e-07
2.57375e-07
2.60693e-07
2.64028e-07
2.67379e-07
2.70747e-07
2.7413e-07
2.77529e-07
2.80942e-07
2.84369e-07
2.87809e-07
2.91263e-07
2.94729e-07
2.98207e-07
3.01697e-07
3.05197e-07
3.08708e-07
3.12228e-07
3.15757e-07
3.19294e-07
3.22839e-07
3.26392e-07
3.2995e-07
3.33515e-07
3.37084e-07
3.40658e-07
3.44236e-07
3.47817e-07
3.514e-07
3.54985e-07
3.58571e-07
3.62156e-07
3.65742e-07
3.69325e-07
3.72907e-07
3.76486e-07
3.80061e-07
3.83632e-07
3.87197e-07
3.90756e-07
3.94308e-07
3.97852e-07
4.01388e-07
4.04914e-07
4.08429e-07
4.11933e-07
4.15424e-07
4.18902e-07
4.22365e-07
4.25813e-07
4.29244e-07
4.32657e-07
4.36052e-07
4.39426e-07
4.42778e-07
4.46107e-07
4.49413e-07
4.52692e-07
4.55943e-07
4.59165e-07
4.62356e-07
4.65514e-07
4.68636e-07
4.7172e-07
4.74764e-07
4.77764e-07
4.80718e-07
4.83623e-07
4.86474e-07
4.89267e-07
4.91998e-07
4.94663e-07
4.97255e-07
4.99768e-07
5.02196e-07
5.04532e-07
5.06766e-07
5.08891e-07
5.10896e-07
5.1277e-07
5.145e-07
5.16074e-07
5.17476e-07
5.1869e-07
5.19699e-07
5.20486e-07
5.2103e-07
5.21312e-07
4.1975e-13
1.34635e-12
2.36666e-12
3.48594e-12
4.70798e-12
6.03605e-12
7.47366e-12
9.02489e-12
1.06944e-11
1.24875e-11
1.44098e-11
1.64675e-11
1.86669e-11
2.10149e-11
2.35183e-11
2.61841e-11
2.90196e-11
3.20321e-11
3.52293e-11
3.86188e-11
4.22083e-11
4.6006e-11
5.00198e-11
5.42582e-11
5.87296e-11
6.34426e-11
6.84061e-11
7.36291e-11
7.91207e-11
8.48904e-11
9.09478e-11
9.73027e-11
1.03965e-10
1.10945e-10
1.18254e-10
1.25902e-10
1.33899e-10
1.42258e-10
1.5099e-10
1.60105e-10
1.69617e-10
1.79538e-10
1.8988e-10
2.00655e-10
2.11878e-10
2.23561e-10
2.35718e-10
2.48363e-10
2.6151e-10
2.75175e-10
2.89372e-10
3.04116e-10
3.19423e-10
3.35309e-10
3.51791e-10
3.68886e-10
3.8661e-10
4.04982e-10
4.2402e-10
4.43741e-10
4.64165e-10
4.85312e-10
5.07201e-10
5.29852e-10
5.53287e-10
5.77526e-10
6.02592e-10
6.28506e-10
6.55292e-10
6.82974e-10
7.11574e-10
7.41119e-10
7.71632e-10
8.0314e-10
8.35669e-10
8.69246e-10
9.03898e-10
9.39656e-10
9.76546e-10
1.0146e-09
1.05385e-09
1.09432e-09
1.13604e-09
1.17906e-09
1.2234e-09
1.26909e-09
1.31618e-09
1.36469e-09
1.41467e-09
1.46615e-09
1.51917e-09
1.57377e-09
1.62999e-09
1.68787e-09
1.74745e-09
1.80878e-09
1.8719e-09
1.93685e-09
2.00369e-09
2.07245e-09
2.14319e-09
2.21596e-09
2.2908e-09
2.36777e-09
2.44692e-09
2.5283e-09
2.61197e-09
2.69799e-09
2.78641e-09
2.87729e-09
2.97069e-09
3.06667e-09
3.1653e-09
3.26664e-09
3.37075e-09
3.4777e-09
3.58756e-09
3.70039e-09
3.81628e-09
3.93528e-09
4.05748e-09
4.18294e-09
4.31175e-09
4.44399e-09
4.57972e-09
4.71905e-09
4.86204e-09
5.00878e-09
5.15936e-09
5.31386e-09
5.47238e-09
5.63501e-09
5.80183e-09
5.97295e-09
6.14846e-09
6.32846e-09
6.51304e-09
6.70232e-09
6.89638e-09
7.09535e-09
7.29932e-09
7.5084e-09
7.72272e-09
7.94237e-09
8.16747e-09
8.39814e-09
8.6345e-09
8.87667e-09
9.12477e-09
9.37893e-09
9.63927e-09
9.90592e-09
1.0179e-08
1.04587e-08
1.07451e-08
1.10383e-08
1.13385e-08
1.16458e-08
1.19604e-08
1.22824e-08
1.2612e-08
1.29493e-08
1.32944e-08
1.36476e-08
1.40089e-08
1.43786e-08
1.47567e-08
1.51435e-08
1.55391e-08
1.59436e-08
1.63573e-08
1.67804e-08
1.72129e-08
1.76551e-08
1.81071e-08
1.85691e-08
1.90413e-08
1.95239e-08
2.0017e-08
2.05209e-08
2.10357e-08
2.15617e-08
2.20989e-08
2.26477e-08
2.32081e-08
2.37805e-08
2.43649e-08
2.49617e-08
2.55709e-08
2.61929e-08
2.68277e-08
2.74757e-08
2.8137e-08
2.88118e-08
2.95003e-08
3.02028e-08
3.09195e-08
3.16505e-08
3.23962e-08
3.31566e-08
3.39321e-08
3.47228e-08
3.5529e-08
3.63509e-08
3.71888e-08
3.80427e-08
3.8913e-08
3.97999e-08
4.07036e-08
4.16243e-08
4.25623e-08
4.35178e-08
4.4491e-08
4.54821e-08
4.64914e-08
4.75191e-08
4.85654e-08
4.96305e-08
5.07147e-08
5.18182e-08
5.29412e-08
5.40839e-08
5.52466e-08
5.64294e-08
5.76327e-08
5.88566e-08
6.01013e-08
6.1367e-08
6.2654e-08
6.39626e-08
6.52927e-08
6.66448e-08
6.8019e-08
6.94156e-08
7.08346e-08
7.22763e-08
7.3741e-08
7.52288e-08
7.67399e-08
7.82744e-08
7.98327e-08
8.14148e-08
8.30209e-08
8.46513e-08
8.6306e-08
8.79853e-08
8.96894e-08
9.14183e-08
9.31722e-08
9.49513e-08
9.67558e-08
9.85857e-08
1.00441e-07
1.02322e-07
1.0423e-07
1.06163e-07
1.08122e-07
1.10107e-07
1.12119e-07
1.14157e-07
1.16222e-07
1.18313e-07
1.20431e-07
1.22576e-07
1.24747e-07
1.26945e-07
1.29171e-07
1.31423e-07
1.33702e-07
1.36008e-07
1.38341e-07
1.40701e-07
1.43088e-07
1.45502e-07
1.47943e-07
1.50412e-07
1.52907e-07
1.55429e-07
1.57977e-07
1.60553e-07
1.63156e-07
1.65785e-07
1.6844e-07
1.71122e-07
1.7383e-07
1.76565e-07
1.79326e-07
1.82112e-07
1.84925e-07
1.87763e-07
1.90626e-07
1.93515e-07
1.96429e-07
1.99368e-07
2.02332e-07
2.05319e-07
2.08332e-07
2.11368e-07
2.14428e-07
2.17511e-07
2.20617e-07
2.23747e-07
2.26899e-07
2.30073e-07
2.33269e-07
2.36486e-07
2.39725e-07
2.42985e-07
2.46265e-07
2.49565e-07
2.52885e-07
2.56224e-07
2.59582e-07
2.62959e-07
2.66353e-07
2.69765e-07
2.73194e-07
2.7664e-07
2.80102e-07
2.83579e-07
2.87071e-07
2.90578e-07
2.94099e-07
2.97633e-07
3.01181e-07
3.0474e-07
3.08311e-07
3.11894e-07
3.15487e-07
3.1909e-07
3.22702e-07
3.26323e-07
3.29952e-07
3.33588e-07
3.37231e-07
3.4088e-07
3.44534e-07
3.48194e-07
3.51857e-07
3.55523e-07
3.59192e-07
3.62862e-07
3.66534e-07
3.70206e-07
3.73877e-07
3.77547e-07
3.81215e-07
3.8488e-07
3.88542e-07
3.92199e-07
3.95851e-07
3.99497e-07
4.03135e-07
4.06766e-07
4.10388e-07
4.14e-07
4.17602e-07
4.21192e-07
4.24769e-07
4.28333e-07
4.31882e-07
4.35415e-07
4.38932e-07
4.4243e-07
4.45909e-07
4.49368e-07
4.52805e-07
4.56218e-07
4.59607e-07
4.6297e-07
4.66304e-07
4.69609e-07
4.72882e-07
4.76122e-07
4.79325e-07
4.8249e-07
4.85614e-07
4.88694e-07
4.91728e-07
4.94711e-07
4.9764e-07
5.00511e-07
5.03319e-07
5.06059e-07
5.08726e-07
5.11314e-07
5.13816e-07
5.16224e-07
5.1853e-07
5.20725e-07
5.22799e-07
5.2474e-07
5.26536e-07
5.28172e-07
5.29634e-07
5.30904e-07
5.31964e-07
5.32794e-07
5.33371e-07
5.33673e-07
4.12085e-13
1.32137e-12
2.32119e-12
3.41737e-12
4.61512e-12
5.91889e-12
7.33303e-12
8.86213e-12
1.05111e-11
1.22853e-11
1.41906e-11
1.62329e-11
1.84188e-11
2.07548e-11
2.32478e-11
2.59048e-11
2.8733e-11
3.17399e-11
3.4933e-11
3.832e-11
4.19088e-11
4.57074e-11
4.9724e-11
5.39671e-11
5.84451e-11
6.3167e-11
6.81416e-11
7.3378e-11
7.88857e-11
8.46742e-11
9.07532e-11
9.71328e-11
1.03823e-10
1.10835e-10
1.18178e-10
1.25865e-10
1.33905e-10
1.42311e-10
1.51093e-10
1.60265e-10
1.69838e-10
1.79824e-10
1.90237e-10
2.01089e-10
2.12394e-10
2.24165e-10
2.36417e-10
2.49163e-10
2.62418e-10
2.76198e-10
2.90517e-10
3.05391e-10
3.20836e-10
3.36868e-10
3.53505e-10
3.70762e-10
3.88659e-10
4.07213e-10
4.26441e-10
4.46364e-10
4.67e-10
4.88369e-10
5.10491e-10
5.33387e-10
5.57079e-10
5.81587e-10
6.06934e-10
6.33142e-10
6.60236e-10
6.88239e-10
7.17174e-10
7.47068e-10
7.77946e-10
8.09834e-10
8.42759e-10
8.76748e-10
9.11829e-10
9.48032e-10
9.85386e-10
1.02392e-09
1.06367e-09
1.10466e-09
1.14692e-09
1.1905e-09
1.23542e-09
1.28172e-09
1.32943e-09
1.37859e-09
1.42923e-09
1.48141e-09
1.53514e-09
1.59049e-09
1.64747e-09
1.70615e-09
1.76655e-09
1.82873e-09
1.89272e-09
1.95858e-09
2.02636e-09
2.09609e-09
2.16782e-09
2.24162e-09
2.31752e-09
2.39559e-09
2.47587e-09
2.55842e-09
2.6433e-09
2.73056e-09
2.82026e-09
2.91246e-09
3.00722e-09
3.10461e-09
3.20468e-09
3.3075e-09
3.41315e-09
3.52167e-09
3.63316e-09
3.74766e-09
3.86527e-09
3.98604e-09
4.11006e-09
4.2374e-09
4.36814e-09
4.50236e-09
4.64014e-09
4.78156e-09
4.92671e-09
5.07567e-09
5.22853e-09
5.38538e-09
5.54631e-09
5.71141e-09
5.88078e-09
6.05451e-09
6.23271e-09
6.41546e-09
6.60288e-09
6.79506e-09
6.99212e-09
7.19415e-09
7.40127e-09
7.61359e-09
7.83122e-09
8.05428e-09
8.28288e-09
8.51714e-09
8.75718e-09
9.00312e-09
9.2551e-09
9.51323e-09
9.77765e-09
1.00485e-08
1.03259e-08
1.06099e-08
1.09008e-08
1.11986e-08
1.15036e-08
1.18158e-08
1.21353e-08
1.24625e-08
1.27973e-08
1.31399e-08
1.34905e-08
1.38493e-08
1.42164e-08
1.45919e-08
1.49761e-08
1.5369e-08
1.5771e-08
1.6182e-08
1.66024e-08
1.70322e-08
1.74717e-08
1.79209e-08
1.83802e-08
1.88497e-08
1.93295e-08
1.98199e-08
2.03211e-08
2.08331e-08
2.13563e-08
2.18908e-08
2.24368e-08
2.29945e-08
2.35641e-08
2.41457e-08
2.47397e-08
2.53462e-08
2.59655e-08
2.65976e-08
2.72429e-08
2.79015e-08
2.85736e-08
2.92595e-08
2.99594e-08
3.06735e-08
3.1402e-08
3.21452e-08
3.29032e-08
3.36762e-08
3.44646e-08
3.52684e-08
3.60881e-08
3.69237e-08
3.77754e-08
3.86436e-08
3.95285e-08
4.04302e-08
4.13491e-08
4.22852e-08
4.3239e-08
4.42105e-08
4.52001e-08
4.62079e-08
4.72342e-08
4.82793e-08
4.93432e-08
5.04264e-08
5.1529e-08
5.26511e-08
5.37932e-08
5.49554e-08
5.61378e-08
5.73409e-08
5.85646e-08
5.98094e-08
6.10754e-08
6.23629e-08
6.3672e-08
6.50029e-08
6.6356e-08
6.77313e-08
6.91292e-08
7.05498e-08
7.19934e-08
7.34601e-08
7.49501e-08
7.64636e-08
7.8001e-08
7.95622e-08
8.11475e-08
8.27572e-08
8.43914e-08
8.60502e-08
8.77339e-08
8.94426e-08
9.11765e-08
9.29357e-08
9.47205e-08
9.65309e-08
9.83672e-08
1.00229e-07
1.02118e-07
1.04032e-07
1.05973e-07
1.07941e-07
1.09935e-07
1.11955e-07
1.14003e-07
1.16077e-07
1.18179e-07
1.20307e-07
1.22463e-07
1.24646e-07
1.26857e-07
1.29094e-07
1.31359e-07
1.33652e-07
1.35972e-07
1.3832e-07
1.40695e-07
1.43098e-07
1.45528e-07
1.47986e-07
1.50472e-07
1.52985e-07
1.55526e-07
1.58094e-07
1.60689e-07
1.63312e-07
1.65962e-07
1.68639e-07
1.71344e-07
1.74075e-07
1.76833e-07
1.79618e-07
1.8243e-07
1.85268e-07
1.88133e-07
1.91023e-07
1.9394e-07
1.96883e-07
1.99851e-07
2.02845e-07
2.05864e-07
2.08907e-07
2.11976e-07
2.15069e-07
2.18187e-07
2.21328e-07
2.24493e-07
2.27681e-07
2.30893e-07
2.34127e-07
2.37384e-07
2.40662e-07
2.43963e-07
2.47285e-07
2.50627e-07
2.53991e-07
2.57374e-07
2.60777e-07
2.642e-07
2.67641e-07
2.71101e-07
2.74579e-07
2.78074e-07
2.81586e-07
2.85115e-07
2.8866e-07
2.9222e-07
2.95795e-07
2.99385e-07
3.02988e-07
3.06605e-07
3.10234e-07
3.13876e-07
3.17528e-07
3.21192e-07
3.24866e-07
3.2855e-07
3.32242e-07
3.35943e-07
3.39652e-07
3.43367e-07
3.47089e-07
3.50816e-07
3.54549e-07
3.58285e-07
3.62025e-07
3.65768e-07
3.69512e-07
3.73258e-07
3.77004e-07
3.8075e-07
3.84494e-07
3.88237e-07
3.91977e-07
3.95714e-07
3.99446e-07
4.03173e-07
4.06893e-07
4.10607e-07
4.14313e-07
4.1801e-07
4.21697e-07
4.25373e-07
4.29038e-07
4.3269e-07
4.36329e-07
4.39952e-07
4.4356e-07
4.47151e-07
4.50724e-07
4.54277e-07
4.57809e-07
4.6132e-07
4.64807e-07
4.68269e-07
4.71704e-07
4.75112e-07
4.78489e-07
4.81835e-07
4.85146e-07
4.88421e-07
4.91658e-07
4.94853e-07
4.98004e-07
5.01107e-07
5.04161e-07
5.07159e-07
5.10099e-07
5.12976e-07
5.15785e-07
5.1852e-07
5.21175e-07
5.23744e-07
5.26219e-07
5.28591e-07
5.30851e-07
5.32988e-07
5.34992e-07
5.3685e-07
5.38546e-07
5.40065e-07
5.41389e-07
5.42498e-07
5.4337e-07
5.43981e-07
5.44302e-07
4.05301e-13
1.29918e-12
2.28082e-12
3.35593e-12
4.53044e-12
5.80982e-12
7.19935e-12
8.7043e-12
1.03301e-11
1.20825e-11
1.39673e-11
1.59907e-11
1.81591e-11
2.04792e-11
2.29577e-11
2.56016e-11
2.8418e-11
3.14144e-11
3.45982e-11
3.79772e-11
4.15592e-11
4.53523e-11
4.93648e-11
5.36052e-11
5.8082e-11
6.28042e-11
6.77807e-11
7.30209e-11
7.85342e-11
8.43303e-11
9.04191e-11
9.68107e-11
1.03515e-10
1.10544e-10
1.17907e-10
1.25616e-10
1.33682e-10
1.42116e-10
1.50931e-10
1.60138e-10
1.6975e-10
1.79779e-10
1.90239e-10
2.01143e-10
2.12504e-10
2.24335e-10
2.36652e-10
2.49469e-10
2.628e-10
2.7666e-10
2.91066e-10
3.06032e-10
3.21576e-10
3.37713e-10
3.54462e-10
3.71838e-10
3.8986e-10
4.08547e-10
4.27916e-10
4.47987e-10
4.6878e-10
4.90314e-10
5.1261e-10
5.35688e-10
5.59571e-10
5.84281e-10
6.09839e-10
6.36269e-10
6.63595e-10
6.9184e-10
7.21029e-10
7.51188e-10
7.82343e-10
8.1452e-10
8.47746e-10
8.82049e-10
9.17458e-10
9.54002e-10
9.91711e-10
1.03062e-09
1.07075e-09
1.11214e-09
1.15482e-09
1.19882e-09
1.24419e-09
1.29095e-09
1.33914e-09
1.3888e-09
1.43997e-09
1.49268e-09
1.54697e-09
1.60289e-09
1.66047e-09
1.71976e-09
1.7808e-09
1.84364e-09
1.90832e-09
1.97488e-09
2.04338e-09
2.11387e-09
2.18638e-09
2.26099e-09
2.33772e-09
2.41665e-09
2.49781e-09
2.58128e-09
2.6671e-09
2.75533e-09
2.84603e-09
2.93927e-09
3.03509e-09
3.13358e-09
3.23478e-09
3.33877e-09
3.44562e-09
3.55539e-09
3.66814e-09
3.78397e-09
3.90292e-09
4.02509e-09
4.15054e-09
4.27936e-09
4.41162e-09
4.5474e-09
4.68679e-09
4.82986e-09
4.97671e-09
5.12742e-09
5.28208e-09
5.44078e-09
5.60361e-09
5.77067e-09
5.94205e-09
6.11785e-09
6.29816e-09
6.4831e-09
6.67276e-09
6.86725e-09
7.06667e-09
7.27113e-09
7.48074e-09
7.69562e-09
7.91588e-09
8.14164e-09
8.37301e-09
8.61011e-09
8.85307e-09
9.10201e-09
9.35706e-09
9.61835e-09
9.886e-09
1.01602e-08
1.04409e-08
1.07285e-08
1.1023e-08
1.13245e-08
1.16332e-08
1.19492e-08
1.22728e-08
1.26039e-08
1.29429e-08
1.32898e-08
1.36448e-08
1.4008e-08
1.43797e-08
1.47599e-08
1.51489e-08
1.55468e-08
1.59538e-08
1.637e-08
1.67956e-08
1.72309e-08
1.76759e-08
1.81309e-08
1.8596e-08
1.90714e-08
1.95573e-08
2.0054e-08
2.05615e-08
2.10801e-08
2.16099e-08
2.21513e-08
2.27042e-08
2.32691e-08
2.3846e-08
2.44352e-08
2.50368e-08
2.56511e-08
2.62783e-08
2.69187e-08
2.75723e-08
2.82394e-08
2.89203e-08
2.96151e-08
3.03241e-08
3.10475e-08
3.17856e-08
3.25384e-08
3.33063e-08
3.40895e-08
3.48882e-08
3.57027e-08
3.65331e-08
3.73797e-08
3.82427e-08
3.91224e-08
4.0019e-08
4.09327e-08
4.18637e-08
4.28123e-08
4.37787e-08
4.47632e-08
4.5766e-08
4.67873e-08
4.78274e-08
4.88864e-08
4.99647e-08
5.10624e-08
5.21798e-08
5.33171e-08
5.44746e-08
5.56525e-08
5.6851e-08
5.80703e-08
5.93107e-08
6.05724e-08
6.18556e-08
6.31606e-08
6.44876e-08
6.58368e-08
6.72084e-08
6.86026e-08
7.00197e-08
7.14598e-08
7.29233e-08
7.44102e-08
7.59208e-08
7.74553e-08
7.90139e-08
8.05968e-08
8.22042e-08
8.38363e-08
8.54932e-08
8.71752e-08
8.88824e-08
9.06151e-08
9.23733e-08
9.41572e-08
9.59671e-08
9.7803e-08
9.96652e-08
1.01554e-07
1.03469e-07
1.0541e-07
1.07379e-07
1.09374e-07
1.11397e-07
1.13446e-07
1.15523e-07
1.17627e-07
1.19759e-07
1.21918e-07
1.24105e-07
1.26319e-07
1.28561e-07
1.30831e-07
1.33129e-07
1.35455e-07
1.37809e-07
1.40191e-07
1.42601e-07
1.45038e-07
1.47504e-07
1.49998e-07
1.5252e-07
1.5507e-07
1.57648e-07
1.60254e-07
1.62888e-07
1.65549e-07
1.68238e-07
1.70955e-07
1.737e-07
1.76472e-07
1.79271e-07
1.82098e-07
1.84951e-07
1.87832e-07
1.90739e-07
1.93674e-07
1.96634e-07
1.99621e-07
2.02634e-07
2.05673e-07
2.08738e-07
2.11828e-07
2.14943e-07
2.18083e-07
2.21248e-07
2.24437e-07
2.27651e-07
2.30888e-07
2.34149e-07
2.37433e-07
2.4074e-07
2.44069e-07
2.4742e-07
2.50794e-07
2.54188e-07
2.57604e-07
2.6104e-07
2.64496e-07
2.67972e-07
2.71467e-07
2.74982e-07
2.78514e-07
2.82064e-07
2.85632e-07
2.89217e-07
2.92817e-07
2.96434e-07
3.00066e-07
3.03713e-07
3.07374e-07
3.11048e-07
3.14735e-07
3.18435e-07
3.22147e-07
3.2587e-07
3.29603e-07
3.33346e-07
3.37099e-07
3.40859e-07
3.44628e-07
3.48404e-07
3.52187e-07
3.55976e-07
3.59769e-07
3.63567e-07
3.67368e-07
3.71173e-07
3.74979e-07
3.78787e-07
3.82596e-07
3.86404e-07
3.90211e-07
3.94016e-07
3.97819e-07
4.01618e-07
4.05413e-07
4.09203e-07
4.12987e-07
4.16763e-07
4.20532e-07
4.24292e-07
4.28043e-07
4.31782e-07
4.3551e-07
4.39226e-07
4.42927e-07
4.46614e-07
4.50284e-07
4.53938e-07
4.57573e-07
4.61189e-07
4.64784e-07
4.68357e-07
4.71906e-07
4.75431e-07
4.78928e-07
4.82397e-07
4.85837e-07
4.89244e-07
4.92616e-07
4.95953e-07
4.9925e-07
5.02506e-07
5.05717e-07
5.08881e-07
5.11995e-07
5.15053e-07
5.18053e-07
5.20989e-07
5.23857e-07
5.26651e-07
5.29366e-07
5.31993e-07
5.34526e-07
5.36956e-07
5.39273e-07
5.41468e-07
5.43528e-07
5.45441e-07
5.47191e-07
5.48762e-07
5.50135e-07
5.51289e-07
5.522e-07
5.52842e-07
5.53181e-07
3.99617e-13
1.28058e-12
2.24702e-12
3.30433e-12
4.4587e-12
5.71627e-12
7.08312e-12
8.56525e-12
1.01687e-11
1.18994e-11
1.37637e-11
1.57678e-11
1.79182e-11
2.02215e-11
2.26843e-11
2.53137e-11
2.81168e-11
3.11008e-11
3.42732e-11
3.76418e-11
4.12143e-11
4.49989e-11
4.90039e-11
5.32377e-11
5.7709e-11
6.24268e-11
6.74001e-11
7.26384e-11
7.8151e-11
8.39479e-11
9.0039e-11
9.64346e-11
1.03145e-10
1.10181e-10
1.17554e-10
1.25274e-10
1.33353e-10
1.41804e-10
1.50637e-10
1.59865e-10
1.69501e-10
1.79557e-10
1.90047e-10
2.00983e-10
2.1238e-10
2.24251e-10
2.36611e-10
2.49475e-10
2.62857e-10
2.76772e-10
2.91237e-10
3.06267e-10
3.21879e-10
3.3809e-10
3.54916e-10
3.72376e-10
3.90487e-10
4.09268e-10
4.28737e-10
4.48914e-10
4.69818e-10
4.91471e-10
5.13892e-10
5.37102e-10
5.61124e-10
5.85979e-10
6.11691e-10
6.38282e-10