/*--------------------------------*- C++ -*----------------------------------*\
  =========                 |
  \\      /  F ield         | OpenFOAM: The Open Source CFD Toolbox
   \\    /   O peration     | Website:  https://openfoam.org
    \\  /    A nd           | Version:  dev
     \\/     M anipulation  |
\*---------------------------------------------------------------------------*/
FoamFile
{
    format      ascii;
    class       volScalarField;
    location    "1";
    object      Exp1;
}
// * * * * * * * * * * * * * * * * * * * * * * * * * * * * * * * * * * * * * //

dimensions      [0 0 0 0 0 0 0];

internalField   uniform 0;

boundaryField
{
    frontAndBack
    {
        type            empty;
    }
    inlet
    {
        type            calculated;
        value           uniform 0;
    }
    outlet
    {
        type            calculated;
        value           uniform 0;
    }
    substrate
    {
        type            calculated;
        value           nonuniform List<scalar> 
400
(
1.08487e-24
3.45536e-24
6.06332e-24
8.89783e-24
1.19608e-23
1.52629e-23
1.88145e-23
2.26265e-23
2.67113e-23
3.1082e-23
3.57529e-23
4.07388e-23
4.60551e-23
5.17176e-23
5.77428e-23
6.41472e-23
7.09478e-23
7.81619e-23
8.58069e-23
9.39008e-23
1.02462e-22
1.11508e-22
1.21059e-22
1.31133e-22
1.4175e-22
1.52929e-22
1.64693e-22
1.7706e-22
1.90052e-22
2.03692e-22
2.18001e-22
2.33002e-22
2.48718e-22
2.65173e-22
2.82392e-22
3.00399e-22
3.19221e-22
3.38882e-22
3.59411e-22
3.80835e-22
4.03181e-22
4.2648e-22
4.5076e-22
4.76052e-22
5.02387e-22
5.29797e-22
5.58315e-22
5.87975e-22
6.18811e-22
6.50859e-22
6.84156e-22
7.18738e-22
7.54644e-22
7.91913e-22
8.30587e-22
8.70706e-22
9.12314e-22
9.55454e-22
1.00017e-21
1.04651e-21
1.09453e-21
1.14426e-21
1.19577e-21
1.2491e-21
1.30431e-21
1.36144e-21
1.42057e-21
1.48174e-21
1.54502e-21
1.61046e-21
1.67813e-21
1.7481e-21
1.82043e-21
1.89519e-21
1.97246e-21
2.05229e-21
2.13478e-21
2.21999e-21
2.308e-21
2.39891e-21
2.49278e-21
2.58971e-21
2.68979e-21
2.79311e-21
2.89976e-21
3.00983e-21
3.12344e-21
3.24068e-21
3.36165e-21
3.48647e-21
3.61525e-21
3.7481e-21
3.88515e-21
4.02651e-21
4.1723e-21
4.32267e-21
4.47774e-21
4.63765e-21
4.80254e-21
4.97255e-21
5.14785e-21
5.32857e-21
5.51487e-21
5.70693e-21
5.90491e-21
6.10897e-21
6.31931e-21
6.53609e-21
6.75952e-21
6.98978e-21
7.22707e-21
7.4716e-21
7.72358e-21
7.98322e-21
8.25076e-21
8.52642e-21
8.81043e-21
9.10304e-21
9.40451e-21
9.71509e-21
1.0035e-20
1.03646e-20
1.07042e-20
1.10539e-20
1.14142e-20
1.17853e-20
1.21675e-20
1.25613e-20
1.29668e-20
1.33844e-20
1.38146e-20
1.42576e-20
1.47138e-20
1.51837e-20
1.56676e-20
1.61659e-20
1.66791e-20
1.72075e-20
1.77517e-20
1.8312e-20
1.8889e-20
1.94832e-20
2.00949e-20
2.07248e-20
2.13734e-20
2.20412e-20
2.27288e-20
2.34368e-20
2.41656e-20
2.4916e-20
2.56886e-20
2.6484e-20
2.73029e-20
2.8146e-20
2.90139e-20
2.99073e-20
3.08271e-20
3.1774e-20
3.27487e-20
3.37521e-20
3.4785e-20
3.58482e-20
3.69427e-20
3.80693e-20
3.9229e-20
4.04226e-20
4.16513e-20
4.29159e-20
4.42176e-20
4.55574e-20
4.69364e-20
4.83558e-20
4.98166e-20
5.13201e-20
5.28675e-20
5.44601e-20
5.60991e-20
5.7786e-20
5.9522e-20
6.13087e-20
6.31473e-20
6.50395e-20
6.69868e-20
6.89907e-20
7.10528e-20
7.31749e-20
7.53587e-20
7.76058e-20
7.99181e-20
8.22975e-20
8.47459e-20
8.72653e-20
8.98576e-20
9.2525e-20
9.52696e-20
9.80936e-20
1.00999e-19
1.03989e-19
1.07065e-19
1.10229e-19
1.13485e-19
1.16835e-19
1.20282e-19
1.23828e-19
1.27476e-19
1.31228e-19
1.35089e-19
1.39061e-19
1.43147e-19
1.47351e-19
1.51675e-19
1.56123e-19
1.60699e-19
1.65406e-19
1.70248e-19
1.75228e-19
1.80351e-19
1.8562e-19
1.91041e-19
1.96615e-19
2.0235e-19
2.08247e-19
2.14314e-19
2.20553e-19
2.26969e-19
2.33569e-19
2.40356e-19
2.47336e-19
2.54515e-19
2.61897e-19
2.69489e-19
2.77297e-19
2.85326e-19
2.93582e-19
3.02073e-19
3.10803e-19
3.19781e-19
3.29012e-19
3.38504e-19
3.48264e-19
3.58299e-19
3.68617e-19
3.79226e-19
3.90133e-19
4.01347e-19
4.12877e-19
4.2473e-19
4.36916e-19
4.49444e-19
4.62324e-19
4.75564e-19
4.89174e-19
5.03166e-19
5.17548e-19
5.32332e-19
5.47529e-19
5.6315e-19
5.79205e-19
5.95708e-19
6.1267e-19
6.30104e-19
6.48022e-19
6.66437e-19
6.85363e-19
7.04813e-19
7.24802e-19
7.45344e-19
7.66454e-19
7.88146e-19
8.10437e-19
8.33343e-19
8.56879e-19
8.81063e-19
9.05912e-19
9.31443e-19
9.57675e-19
9.84625e-19
1.01231e-18
1.04076e-18
1.06998e-18
1.10001e-18
1.13085e-18
1.16253e-18
1.19507e-18
1.2285e-18
1.26284e-18
1.2981e-18
1.33433e-18
1.37153e-18
1.40974e-18
1.44898e-18
1.48928e-18
1.53067e-18
1.57316e-18
1.6168e-18
1.66162e-18
1.70763e-18
1.75487e-18
1.80338e-18
1.85318e-18
1.90431e-18
1.9568e-18
2.01068e-18
2.066e-18
2.12277e-18
2.18105e-18
2.24087e-18
2.30227e-18
2.36528e-18
2.42994e-18
2.4963e-18
2.5644e-18
2.63427e-18
2.70597e-18
2.77953e-18
2.855e-18
2.93242e-18
3.01184e-18
3.09331e-18
3.17687e-18
3.26257e-18
3.35047e-18
3.4406e-18
3.53303e-18
3.6278e-18
3.72497e-18
3.82458e-18
3.92669e-18
4.03136e-18
4.13863e-18
4.24857e-18
4.36123e-18
4.47666e-18
4.59492e-18
4.71607e-18
4.84015e-18
4.96724e-18
5.09737e-18
5.23062e-18
5.36703e-18
5.50666e-18
5.64957e-18
5.7958e-18
5.9454e-18
6.09844e-18
6.25496e-18
6.415e-18
6.57862e-18
6.74585e-18
6.91674e-18
7.09132e-18
7.26963e-18
7.4517e-18
7.63754e-18
7.8272e-18
8.02067e-18
8.21796e-18
8.41909e-18
8.62404e-18
8.8328e-18
9.04535e-18
9.26165e-18
9.48166e-18
9.70533e-18
9.93258e-18
1.01633e-17
1.03975e-17
1.06349e-17
1.08755e-17
1.1119e-17
1.13654e-17
1.16143e-17
1.18656e-17
1.2119e-17
1.23742e-17
1.26308e-17
1.28886e-17
1.3147e-17
1.34056e-17
1.36639e-17
1.39213e-17
1.41773e-17
1.44311e-17
1.4682e-17
1.49291e-17
1.51715e-17
1.54083e-17
1.56383e-17
1.58604e-17
1.60733e-17
1.62755e-17
1.64657e-17
1.66421e-17
1.6803e-17
1.69467e-17
1.7071e-17
1.71742e-17
1.72542e-17
1.73091e-17
1.73372e-17
)
;
    }
    Wall
    {
        type            calculated;
        value           nonuniform List<scalar> 
400
(
1.08485e-24
3.4553e-24
6.0632e-24
8.89764e-24
1.19605e-23
1.52625e-23
1.8814e-23
2.26259e-23
2.67105e-23
3.1081e-23
3.57517e-23
4.07374e-23
4.60534e-23
5.17158e-23
5.77406e-23
6.41447e-23
7.0945e-23
7.81587e-23
8.58034e-23
9.38969e-23
1.02457e-22
1.11503e-22
1.21053e-22
1.31127e-22
1.41744e-22
1.52923e-22
1.64686e-22
1.77053e-22
1.90045e-22
2.03684e-22
2.17992e-22
2.32992e-22
2.48708e-22
2.65163e-22
2.82381e-22
3.00388e-22
3.19209e-22
3.3887e-22
3.59398e-22
3.80821e-22
4.03167e-22
4.26465e-22
4.50744e-22
4.76035e-22
5.02369e-22
5.29779e-22
5.58296e-22
5.87955e-22
6.1879e-22
6.50837e-22
6.84133e-22
7.18714e-22
7.54618e-22
7.91887e-22
8.30559e-22
8.70678e-22
9.12284e-22
9.55424e-22
1.00014e-21
1.04648e-21
1.09449e-21
1.14423e-21
1.19573e-21
1.24906e-21
1.30426e-21
1.3614e-21
1.42052e-21
1.48169e-21
1.54497e-21
1.61041e-21
1.67808e-21
1.74805e-21
1.82038e-21
1.89514e-21
1.9724e-21
2.05223e-21
2.13471e-21
2.21992e-21
2.30794e-21
2.39884e-21
2.49271e-21
2.58964e-21
2.68972e-21
2.79303e-21
2.89967e-21
3.00975e-21
3.12335e-21
3.24058e-21
3.36156e-21
3.48637e-21
3.61515e-21
3.748e-21
3.88504e-21
4.02639e-21
4.17218e-21
4.32255e-21
4.47761e-21
4.63752e-21
4.8024e-21
4.97241e-21
5.1477e-21
5.32841e-21
5.51472e-21
5.70677e-21
5.90474e-21
6.1088e-21
6.31913e-21
6.53591e-21
6.75933e-21
6.98958e-21
7.22687e-21
7.47139e-21
7.72336e-21
7.983e-21
8.25053e-21
8.52618e-21
8.81019e-21
9.10279e-21
9.40425e-21
9.71482e-21
1.00348e-20
1.03644e-20
1.07039e-20
1.10536e-20
1.14139e-20
1.1785e-20
1.21672e-20
1.25609e-20
1.29664e-20
1.3384e-20
1.38142e-20
1.42572e-20
1.47134e-20
1.51833e-20
1.56671e-20
1.61655e-20
1.66786e-20
1.7207e-20
1.77512e-20
1.83115e-20
1.88885e-20
1.94826e-20
2.00944e-20
2.07243e-20
2.13729e-20
2.20407e-20
2.27282e-20
2.34361e-20
2.4165e-20
2.49154e-20
2.5688e-20
2.64833e-20
2.73022e-20
2.81452e-20
2.90131e-20
2.99065e-20
3.08263e-20
3.17731e-20
3.27478e-20
3.37512e-20
3.47841e-20
3.58473e-20
3.69417e-20
3.80683e-20
3.92279e-20
4.04216e-20
4.16502e-20
4.29148e-20
4.42165e-20
4.55562e-20
4.69352e-20
4.83545e-20
4.98152e-20
5.13187e-20
5.28661e-20
5.44586e-20
5.60976e-20
5.77845e-20
5.95205e-20
6.1307e-20
6.31457e-20
6.50378e-20
6.6985e-20
6.89889e-20
7.1051e-20
7.3173e-20
7.53567e-20
7.76037e-20
7.9916e-20
8.22954e-20
8.47437e-20
8.7263e-20
8.98553e-20
9.25226e-20
9.52671e-20
9.8091e-20
1.00996e-19
1.03986e-19
1.07062e-19
1.10226e-19
1.13482e-19
1.16832e-19
1.20279e-19
1.23824e-19
1.27472e-19
1.31225e-19
1.35086e-19
1.39058e-19
1.43144e-19
1.47347e-19
1.51671e-19
1.56119e-19
1.60695e-19
1.65401e-19
1.70243e-19
1.75223e-19
1.80346e-19
1.85616e-19
1.91036e-19
1.9661e-19
2.02344e-19
2.08242e-19
2.14308e-19
2.20547e-19
2.26963e-19
2.33563e-19
2.4035e-19
2.4733e-19
2.54508e-19
2.6189e-19
2.69482e-19
2.7729e-19
2.85318e-19
2.93575e-19
3.02065e-19
3.10795e-19
3.19772e-19
3.29003e-19
3.38495e-19
3.48254e-19
3.58289e-19
3.68607e-19
3.79216e-19
3.90123e-19
4.01337e-19
4.12866e-19
4.24719e-19
4.36905e-19
4.49432e-19
4.62311e-19
4.75551e-19
4.89161e-19
5.03152e-19
5.17534e-19
5.32318e-19
5.47515e-19
5.63135e-19
5.7919e-19
5.95693e-19
6.12654e-19
6.30088e-19
6.48005e-19
6.6642e-19
6.85345e-19
7.04795e-19
7.24784e-19
7.45325e-19
7.66434e-19
7.88126e-19
8.10416e-19
8.33321e-19
8.56857e-19
8.8104e-19
9.05888e-19
9.31419e-19
9.5765e-19
9.846e-19
1.01229e-18
1.04073e-18
1.06996e-18
1.09998e-18
1.13082e-18
1.1625e-18
1.19504e-18
1.22847e-18
1.2628e-18
1.29807e-18
1.33429e-18
1.37149e-18
1.4097e-18
1.44894e-18
1.48924e-18
1.53062e-18
1.57312e-18
1.61676e-18
1.66157e-18
1.70758e-18
1.75483e-18
1.80333e-18
1.85313e-18
1.90426e-18
1.95675e-18
2.01063e-18
2.06594e-18
2.12272e-18
2.181e-18
2.24081e-18
2.30221e-18
2.36522e-18
2.42988e-18
2.49624e-18
2.56433e-18
2.63421e-18
2.7059e-18
2.77946e-18
2.85492e-18
2.93234e-18
3.01176e-18
3.09323e-18
3.17679e-18
3.26249e-18
3.35038e-18
3.44052e-18
3.53294e-18
3.62771e-18
3.72487e-18
3.82448e-18
3.92659e-18
4.03126e-18
4.13853e-18
4.24847e-18
4.36112e-18
4.47655e-18
4.5948e-18
4.71595e-18
4.84003e-18
4.96711e-18
5.09725e-18
5.23049e-18
5.3669e-18
5.50652e-18
5.64942e-18
5.79565e-18
5.94526e-18
6.09829e-18
6.25481e-18
6.41485e-18
6.57846e-18
6.74569e-18
6.91657e-18
7.09115e-18
7.26945e-18
7.45151e-18
7.63736e-18
7.827e-18
8.02047e-18
8.21776e-18
8.41888e-18
8.62383e-18
8.83258e-18
9.04512e-18
9.26142e-18
9.48143e-18
9.70509e-18
9.93234e-18
1.01631e-17
1.03972e-17
1.06346e-17
1.08752e-17
1.11188e-17
1.13651e-17
1.1614e-17
1.18653e-17
1.21187e-17
1.23739e-17
1.26305e-17
1.28883e-17
1.31467e-17
1.34053e-17
1.36636e-17
1.3921e-17
1.4177e-17
1.44308e-17
1.46816e-17
1.49287e-17
1.51712e-17
1.54079e-17
1.5638e-17
1.58601e-17
1.6073e-17
1.62752e-17
1.64654e-17
1.66418e-17
1.68027e-17
1.69463e-17
1.70707e-17
1.71739e-17
1.7254e-17
1.73089e-17
1.73369e-17
)
;
    }
}


// ************************************************************************* //
