/*--------------------------------*- C++ -*----------------------------------*\
  =========                 |
  \\      /  F ield         | OpenFOAM: The Open Source CFD Toolbox
   \\    /   O peration     | Website:  https://openfoam.org
    \\  /    A nd           | Version:  dev
     \\/     M anipulation  |
\*---------------------------------------------------------------------------*/
FoamFile
{
    format      ascii;
    class       volScalarField;
    location    "1";
    object      N1;
}
// * * * * * * * * * * * * * * * * * * * * * * * * * * * * * * * * * * * * * //

dimensions      [0 0 0 0 0 0 0];

internalField   nonuniform List<scalar> 
8000
(
8.23685e-24
2.62413e-23
4.60556e-23
6.75972e-23
9.0881e-23
1.15989e-22
1.42999e-22
1.71997e-22
2.03076e-22
2.36337e-22
2.71889e-22
3.09846e-22
3.50326e-22
3.93451e-22
4.39346e-22
4.88139e-22
5.39959e-22
5.9494e-22
6.53216e-22
7.14924e-22
7.80204e-22
8.49198e-22
9.22051e-22
9.98909e-22
1.07992e-21
1.16525e-21
1.25504e-21
1.34946e-21
1.44867e-21
1.55283e-21
1.66213e-21
1.77672e-21
1.89681e-21
2.02255e-21
2.15416e-21
2.29181e-21
2.4357e-21
2.58605e-21
2.74304e-21
2.9069e-21
3.07785e-21
3.2561e-21
3.44188e-21
3.63544e-21
3.837e-21
4.04682e-21
4.26515e-21
4.49225e-21
4.72838e-21
4.97382e-21
5.22886e-21
5.49377e-21
5.76885e-21
6.05441e-21
6.35076e-21
6.65823e-21
6.97713e-21
7.30781e-21
7.65062e-21
8.00592e-21
8.37406e-21
8.75544e-21
9.15043e-21
9.55945e-21
9.98289e-21
1.04212e-20
1.08748e-20
1.13441e-20
1.18296e-20
1.23317e-20
1.2851e-20
1.3388e-20
1.39431e-20
1.45169e-20
1.511e-20
1.57228e-20
1.63561e-20
1.70102e-20
1.7686e-20
1.8384e-20
1.91048e-20
1.98491e-20
2.06177e-20
2.14111e-20
2.22302e-20
2.30756e-20
2.39482e-20
2.48487e-20
2.57779e-20
2.67368e-20
2.77261e-20
2.87467e-20
2.97995e-20
3.08856e-20
3.20058e-20
3.31611e-20
3.43526e-20
3.55813e-20
3.68484e-20
3.81549e-20
3.95019e-20
4.08907e-20
4.23225e-20
4.37985e-20
4.532e-20
4.68884e-20
4.85049e-20
5.01711e-20
5.18884e-20
5.36583e-20
5.54822e-20
5.73618e-20
5.92987e-20
6.12945e-20
6.33511e-20
6.54701e-20
6.76533e-20
6.99028e-20
7.22203e-20
7.46079e-20
7.70676e-20
7.96015e-20
8.22118e-20
8.49007e-20
8.76705e-20
9.05236e-20
9.34624e-20
9.64893e-20
9.9607e-20
1.02818e-19
1.06125e-19
1.09532e-19
1.1304e-19
1.16652e-19
1.20373e-19
1.24204e-19
1.2815e-19
1.32213e-19
1.36397e-19
1.40706e-19
1.45143e-19
1.49711e-19
1.54415e-19
1.59259e-19
1.64246e-19
1.69381e-19
1.74669e-19
1.80112e-19
1.85717e-19
1.91488e-19
1.97429e-19
2.03545e-19
2.09842e-19
2.16325e-19
2.22999e-19
2.29869e-19
2.36942e-19
2.44224e-19
2.51719e-19
2.59435e-19
2.67378e-19
2.75555e-19
2.83971e-19
2.92635e-19
3.01553e-19
3.10732e-19
3.20181e-19
3.29906e-19
3.39916e-19
3.5022e-19
3.60824e-19
3.71739e-19
3.82973e-19
3.94536e-19
4.06436e-19
4.18683e-19
4.31288e-19
4.44261e-19
4.57612e-19
4.71351e-19
4.85491e-19
5.00043e-19
5.15019e-19
5.30429e-19
5.46288e-19
5.62608e-19
5.79402e-19
5.96683e-19
6.14466e-19
6.32765e-19
6.51595e-19
6.7097e-19
6.90906e-19
7.1142e-19
7.32527e-19
7.54245e-19
7.76591e-19
7.99582e-19
8.23238e-19
8.47576e-19
8.72617e-19
8.9838e-19
9.24886e-19
9.52155e-19
9.8021e-19
1.00907e-18
1.03877e-18
1.06931e-18
1.10074e-18
1.13306e-18
1.16632e-18
1.20053e-18
1.23572e-18
1.27192e-18
1.30915e-18
1.34746e-18
1.38686e-18
1.42738e-18
1.46907e-18
1.51194e-18
1.55604e-18
1.6014e-18
1.64805e-18
1.69604e-18
1.74538e-18
1.79614e-18
1.84834e-18
1.90202e-18
1.95723e-18
2.01401e-18
2.0724e-18
2.13244e-18
2.19419e-18
2.25769e-18
2.32299e-18
2.39013e-18
2.45917e-18
2.53017e-18
2.60317e-18
2.67823e-18
2.75541e-18
2.83476e-18
2.91635e-18
3.00024e-18
3.08648e-18
3.17515e-18
3.26632e-18
3.36004e-18
3.45639e-18
3.55544e-18
3.65727e-18
3.76194e-18
3.86955e-18
3.98016e-18
4.09386e-18
4.21074e-18
4.33087e-18
4.45435e-18
4.58127e-18
4.71173e-18
4.8458e-18
4.98361e-18
5.12524e-18
5.27079e-18
5.42038e-18
5.57411e-18
5.73209e-18
5.89444e-18
6.06128e-18
6.23271e-18
6.40887e-18
6.58989e-18
6.77588e-18
6.96699e-18
7.16335e-18
7.36509e-18
7.57236e-18
7.78531e-18
8.00409e-18
8.22885e-18
8.45974e-18
8.69693e-18
8.94058e-18
9.19087e-18
9.44796e-18
9.71203e-18
9.98326e-18
1.02618e-17
1.0548e-17
1.08418e-17
1.11436e-17
1.14536e-17
1.17719e-17
1.20987e-17
1.24343e-17
1.2779e-17
1.31329e-17
1.34962e-17
1.38693e-17
1.42523e-17
1.46455e-17
1.50492e-17
1.54636e-17
1.5889e-17
1.63257e-17
1.67739e-17
1.7234e-17
1.77061e-17
1.81907e-17
1.86881e-17
1.91984e-17
1.97222e-17
2.02595e-17
2.08109e-17
2.13767e-17
2.19571e-17
2.25525e-17
2.31633e-17
2.37899e-17
2.44325e-17
2.50917e-17
2.57677e-17
2.64609e-17
2.71717e-17
2.79006e-17
2.86479e-17
2.9414e-17
3.01993e-17
3.10043e-17
3.18293e-17
3.26749e-17
3.35413e-17
3.4429e-17
3.53386e-17
3.62703e-17
3.72246e-17
3.8202e-17
3.92029e-17
4.02276e-17
4.12768e-17
4.23506e-17
4.34497e-17
4.45743e-17
4.57249e-17
4.69019e-17
4.81057e-17
4.93365e-17
5.05949e-17
5.18811e-17
5.31953e-17
5.4538e-17
5.59093e-17
5.73096e-17
5.87389e-17
6.01975e-17
6.16854e-17
6.32028e-17
6.47497e-17
6.63259e-17
6.79314e-17
6.95661e-17
7.12297e-17
7.29217e-17
7.46419e-17
7.63897e-17
7.81643e-17
7.99651e-17
8.17911e-17
8.36413e-17
8.55144e-17
8.74091e-17
8.93236e-17
9.12563e-17
9.32051e-17
9.51677e-17
9.71415e-17
9.91237e-17
1.01111e-16
1.031e-16
1.05087e-16
1.07067e-16
1.09035e-16
1.10987e-16
1.12916e-16
1.14817e-16
1.16681e-16
1.18502e-16
1.20272e-16
1.2198e-16
1.23617e-16
1.25173e-16
1.26635e-16
1.27992e-16
1.29229e-16
1.30334e-16
1.31291e-16
1.32084e-16
1.32699e-16
1.33122e-16
1.33338e-16
8.06892e-24
2.58673e-23
4.55143e-23
6.69824e-23
9.02698e-23
1.15431e-22
1.42536e-22
1.71666e-22
2.02912e-22
2.36377e-22
2.7217e-22
3.10408e-22
3.51211e-22
3.94703e-22
4.41012e-22
4.90269e-22
5.42608e-22
5.98164e-22
6.57076e-22
7.19485e-22
7.85534e-22
8.55369e-22
9.2914e-22
1.007e-21
1.0891e-21
1.17559e-21
1.26665e-21
1.36244e-21
1.46312e-21
1.56887e-21
1.67987e-21
1.79629e-21
1.91832e-21
2.04615e-21
2.17998e-21
2.32e-21
2.46642e-21
2.61944e-21
2.77929e-21
2.94617e-21
3.12032e-21
3.30196e-21
3.49133e-21
3.68868e-21
3.89424e-21
4.10829e-21
4.33107e-21
4.56285e-21
4.80392e-21
5.05455e-21
5.31503e-21
5.58567e-21
5.86676e-21
6.15862e-21
6.46158e-21
6.77596e-21
7.1021e-21
7.44036e-21
7.7911e-21
8.15467e-21
8.53147e-21
8.92187e-21
9.3263e-21
9.74514e-21
1.01788e-20
1.06278e-20
1.10925e-20
1.15734e-20
1.2071e-20
1.25857e-20
1.31181e-20
1.36686e-20
1.42378e-20
1.48263e-20
1.54346e-20
1.60633e-20
1.67129e-20
1.73841e-20
1.80776e-20
1.87939e-20
1.95337e-20
2.02978e-20
2.10868e-20
2.19014e-20
2.27424e-20
2.36105e-20
2.45067e-20
2.54315e-20
2.6386e-20
2.7371e-20
2.83873e-20
2.94358e-20
3.05176e-20
3.16335e-20
3.27846e-20
3.39719e-20
3.51965e-20
3.64593e-20
3.77617e-20
3.91046e-20
4.04893e-20
4.1917e-20
4.3389e-20
4.49065e-20
4.64709e-20
4.80835e-20
4.97458e-20
5.14592e-20
5.32251e-20
5.50452e-20
5.6921e-20
5.88541e-20
6.08462e-20
6.28991e-20
6.50144e-20
6.7194e-20
6.94399e-20
7.17538e-20
7.41379e-20
7.65941e-20
7.91246e-20
8.17315e-20
8.4417e-20
8.71835e-20
9.00333e-20
9.29688e-20
9.59926e-20
9.91071e-20
1.02315e-19
1.05619e-19
1.09023e-19
1.12528e-19
1.16137e-19
1.19855e-19
1.23684e-19
1.27627e-19
1.31688e-19
1.35869e-19
1.40175e-19
1.44609e-19
1.49176e-19
1.53877e-19
1.58719e-19
1.63704e-19
1.68837e-19
1.74122e-19
1.79564e-19
1.85167e-19
1.90936e-19
1.96876e-19
2.02991e-19
2.09286e-19
2.15768e-19
2.22441e-19
2.2931e-19
2.36383e-19
2.43663e-19
2.51158e-19
2.58874e-19
2.66817e-19
2.74993e-19
2.8341e-19
2.92074e-19
3.00992e-19
3.10172e-19
3.19622e-19
3.29348e-19
3.3936e-19
3.49665e-19
3.60272e-19
3.71189e-19
3.82425e-19
3.9399e-19
4.05893e-19
4.18144e-19
4.30752e-19
4.43729e-19
4.57084e-19
4.70829e-19
4.84974e-19
4.99531e-19
5.14512e-19
5.29929e-19
5.45795e-19
5.62122e-19
5.78923e-19
5.96213e-19
6.14005e-19
6.32313e-19
6.51152e-19
6.70538e-19
6.90485e-19
7.11011e-19
7.32131e-19
7.53862e-19
7.76221e-19
7.99228e-19
8.22899e-19
8.47254e-19
8.72312e-19
8.98093e-19
9.24618e-19
9.51908e-19
9.79984e-19
1.00887e-18
1.03858e-18
1.06916e-18
1.10061e-18
1.13296e-18
1.16624e-18
1.20048e-18
1.23571e-18
1.27194e-18
1.30921e-18
1.34755e-18
1.38699e-18
1.42755e-18
1.46928e-18
1.5122e-18
1.55634e-18
1.60175e-18
1.64845e-18
1.69649e-18
1.74589e-18
1.7967e-18
1.84896e-18
1.90271e-18
1.95798e-18
2.01483e-18
2.07329e-18
2.13341e-18
2.19523e-18
2.25881e-18
2.32419e-18
2.39143e-18
2.46056e-18
2.53165e-18
2.60475e-18
2.67992e-18
2.75721e-18
2.83667e-18
2.91838e-18
3.00239e-18
3.08877e-18
3.17757e-18
3.26888e-18
3.36274e-18
3.45925e-18
3.55846e-18
3.66045e-18
3.7653e-18
3.87308e-18
3.98388e-18
4.09778e-18
4.21486e-18
4.33521e-18
4.45891e-18
4.58606e-18
4.71675e-18
4.85108e-18
4.98914e-18
5.13104e-18
5.27688e-18
5.42676e-18
5.58079e-18
5.73909e-18
5.90177e-18
6.06895e-18
6.24074e-18
6.41727e-18
6.59867e-18
6.78507e-18
6.9766e-18
7.17339e-18
7.37558e-18
7.58333e-18
7.79677e-18
8.01605e-18
8.24134e-18
8.47278e-18
8.71055e-18
8.9548e-18
9.2057e-18
9.46344e-18
9.72818e-18
1.00001e-17
1.02794e-17
1.05663e-17
1.0861e-17
1.11636e-17
1.14744e-17
1.17935e-17
1.21213e-17
1.24579e-17
1.28035e-17
1.31584e-17
1.35229e-17
1.3897e-17
1.42812e-17
1.46756e-17
1.50806e-17
1.54963e-17
1.59231e-17
1.63612e-17
1.68109e-17
1.72725e-17
1.77463e-17
1.82325e-17
1.87316e-17
1.92438e-17
1.97694e-17
2.03087e-17
2.08622e-17
2.14301e-17
2.20127e-17
2.26104e-17
2.32237e-17
2.38528e-17
2.4498e-17
2.51599e-17
2.58388e-17
2.6535e-17
2.72489e-17
2.79811e-17
2.87317e-17
2.95014e-17
3.02904e-17
3.10993e-17
3.19284e-17
3.27782e-17
3.3649e-17
3.45414e-17
3.54558e-17
3.63926e-17
3.73523e-17
3.83353e-17
3.9342e-17
4.0373e-17
4.14286e-17
4.25092e-17
4.36154e-17
4.47476e-17
4.59061e-17
4.70914e-17
4.83038e-17
4.95439e-17
5.08119e-17
5.21083e-17
5.34333e-17
5.47873e-17
5.61706e-17
5.75835e-17
5.90262e-17
6.04989e-17
6.20017e-17
6.35349e-17
6.50985e-17
6.66924e-17
6.83167e-17
6.99713e-17
7.16559e-17
7.33704e-17
7.51144e-17
7.68874e-17
7.86889e-17
8.05182e-17
8.23746e-17
8.42571e-17
8.61647e-17
8.8096e-17
9.00497e-17
9.20241e-17
9.40174e-17
9.60275e-17
9.8052e-17
1.00088e-16
1.02134e-16
1.04184e-16
1.06237e-16
1.08288e-16
1.10333e-16
1.12366e-16
1.14382e-16
1.16375e-16
1.1834e-16
1.20268e-16
1.22151e-16
1.23982e-16
1.25751e-16
1.27447e-16
1.2906e-16
1.30577e-16
1.31986e-16
1.33274e-16
1.34424e-16
1.35423e-16
1.36253e-16
1.36899e-16
1.37344e-16
1.37573e-16
7.91784e-24
2.54021e-23
4.46848e-23
6.58227e-23
8.88473e-23
1.13804e-22
1.40753e-22
1.69771e-22
2.00944e-22
2.34373e-22
2.70165e-22
3.08438e-22
3.49312e-22
3.92912e-22
4.39367e-22
4.88811e-22
5.41379e-22
5.97209e-22
6.56441e-22
7.1922e-22
7.85692e-22
8.56005e-22
9.30312e-22
1.00877e-21
1.09153e-21
1.17876e-21
1.27063e-21
1.36731e-21
1.46896e-21
1.57576e-21
1.6879e-21
1.80556e-21
1.92894e-21
2.05822e-21
2.19361e-21
2.3353e-21
2.48352e-21
2.63847e-21
2.80037e-21
2.96946e-21
3.14595e-21
3.33009e-21
3.52211e-21
3.72228e-21
3.93083e-21
4.14805e-21
4.37418e-21
4.60951e-21
4.85433e-21
5.10891e-21
5.37357e-21
5.6486e-21
5.93431e-21
6.23104e-21
6.53911e-21
6.85886e-21
7.19065e-21
7.53482e-21
7.89175e-21
8.26181e-21
8.6454e-21
9.04292e-21
9.45477e-21
9.88138e-21
1.03232e-20
1.07806e-20
1.12542e-20
1.17443e-20
1.22515e-20
1.27762e-20
1.3319e-20
1.38804e-20
1.44609e-20
1.50612e-20
1.56817e-20
1.6323e-20
1.69859e-20
1.76708e-20
1.83785e-20
1.91096e-20
1.98648e-20
2.06448e-20
2.14503e-20
2.22821e-20
2.31408e-20
2.40274e-20
2.49426e-20
2.58873e-20
2.68623e-20
2.78684e-20
2.89067e-20
2.9978e-20
3.10833e-20
3.22235e-20
3.33998e-20
3.46132e-20
3.58647e-20
3.71554e-20
3.84865e-20
3.98592e-20
4.12747e-20
4.27342e-20
4.42391e-20
4.57905e-20
4.739e-20
4.90389e-20
5.07386e-20
5.24906e-20
5.42964e-20
5.61577e-20
5.8076e-20
6.0053e-20
6.20904e-20
6.419e-20
6.63536e-20
6.8583e-20
7.08802e-20
7.32471e-20
7.56858e-20
7.81984e-20
8.0787e-20
8.34539e-20
8.62013e-20
8.90315e-20
9.19471e-20
9.49504e-20
9.80441e-20
1.01231e-19
1.04513e-19
1.07894e-19
1.11376e-19
1.14962e-19
1.18656e-19
1.2246e-19
1.26378e-19
1.30413e-19
1.34568e-19
1.38847e-19
1.43254e-19
1.47792e-19
1.52465e-19
1.57276e-19
1.62231e-19
1.67333e-19
1.72586e-19
1.77995e-19
1.83564e-19
1.89299e-19
1.95203e-19
2.01282e-19
2.0754e-19
2.13984e-19
2.20618e-19
2.27447e-19
2.34479e-19
2.41717e-19
2.49169e-19
2.56841e-19
2.64738e-19
2.72868e-19
2.81237e-19
2.89852e-19
2.9872e-19
3.07849e-19
3.17246e-19
3.26918e-19
3.36874e-19
3.47122e-19
3.57671e-19
3.68528e-19
3.79703e-19
3.91205e-19
4.03043e-19
4.15228e-19
4.27768e-19
4.40675e-19
4.53958e-19
4.6763e-19
4.81699e-19
4.96179e-19
5.11081e-19
5.26417e-19
5.422e-19
5.58441e-19
5.75155e-19
5.92355e-19
6.10054e-19
6.28268e-19
6.4701e-19
6.66297e-19
6.86142e-19
7.06563e-19
7.27575e-19
7.49196e-19
7.71443e-19
7.94334e-19
8.17887e-19
8.4212e-19
8.67053e-19
8.92707e-19
9.19101e-19
9.46256e-19
9.74194e-19
1.00294e-18
1.03251e-18
1.06293e-18
1.09423e-18
1.12643e-18
1.15955e-18
1.19363e-18
1.22868e-18
1.26474e-18
1.30184e-18
1.34e-18
1.37925e-18
1.41962e-18
1.46116e-18
1.50388e-18
1.54782e-18
1.59301e-18
1.6395e-18
1.68732e-18
1.7365e-18
1.78708e-18
1.8391e-18
1.89261e-18
1.94763e-18
2.00423e-18
2.06243e-18
2.12228e-18
2.18384e-18
2.24714e-18
2.31223e-18
2.37918e-18
2.44801e-18
2.5188e-18
2.59159e-18
2.66643e-18
2.74339e-18
2.82253e-18
2.90389e-18
2.98755e-18
3.07357e-18
3.16201e-18
3.25294e-18
3.34642e-18
3.44254e-18
3.54135e-18
3.64293e-18
3.74736e-18
3.85472e-18
3.96508e-18
4.07853e-18
4.19516e-18
4.31504e-18
4.43826e-18
4.56493e-18
4.69512e-18
4.82894e-18
4.96649e-18
5.10786e-18
5.25315e-18
5.40248e-18
5.55596e-18
5.71368e-18
5.87578e-18
6.04236e-18
6.21354e-18
6.38945e-18
6.57022e-18
6.75597e-18
6.94684e-18
7.14296e-18
7.34448e-18
7.55153e-18
7.76426e-18
7.98282e-18
8.20737e-18
8.43807e-18
8.67508e-18
8.91855e-18
9.16867e-18
9.42561e-18
9.68954e-18
9.96065e-18
1.02391e-17
1.05251e-17
1.08189e-17
1.11207e-17
1.14306e-17
1.17488e-17
1.20757e-17
1.24114e-17
1.2756e-17
1.311e-17
1.34735e-17
1.38467e-17
1.42299e-17
1.46233e-17
1.50273e-17
1.5442e-17
1.58677e-17
1.63048e-17
1.67535e-17
1.7214e-17
1.76868e-17
1.8172e-17
1.867e-17
1.91812e-17
1.97057e-17
2.0244e-17
2.07964e-17
2.13633e-17
2.19449e-17
2.25416e-17
2.31539e-17
2.3782e-17
2.44263e-17
2.50872e-17
2.57651e-17
2.64605e-17
2.71736e-17
2.79049e-17
2.86548e-17
2.94237e-17
3.02121e-17
3.10203e-17
3.18489e-17
3.26982e-17
3.35687e-17
3.44608e-17
3.53749e-17
3.63116e-17
3.72713e-17
3.82545e-17
3.92615e-17
4.02929e-17
4.13491e-17
4.24306e-17
4.35378e-17
4.46711e-17
4.58311e-17
4.70181e-17
4.82325e-17
4.94749e-17
5.07456e-17
5.2045e-17
5.33734e-17
5.47312e-17
5.61188e-17
5.75365e-17
5.89846e-17
6.04632e-17
6.19727e-17
6.35131e-17
6.50847e-17
6.66875e-17
6.83216e-17
6.99868e-17
7.16832e-17
7.34106e-17
7.51686e-17
7.6957e-17
7.87754e-17
8.06231e-17
8.24995e-17
8.44039e-17
8.63353e-17
8.82925e-17
9.02744e-17
9.22796e-17
9.43062e-17
9.63526e-17
9.84165e-17
1.00496e-16
1.02587e-16
1.04689e-16
1.06796e-16
1.08906e-16
1.11015e-16
1.13118e-16
1.15209e-16
1.17285e-16
1.19337e-16
1.21361e-16
1.23349e-16
1.25291e-16
1.27181e-16
1.29009e-16
1.30763e-16
1.32433e-16
1.34006e-16
1.35469e-16
1.36809e-16
1.38009e-16
1.39053e-16
1.39925e-16
1.40606e-16
1.41078e-16
1.41323e-16
7.76759e-24
2.49148e-23
4.37965e-23
6.45109e-23
8.71287e-23
1.11711e-22
1.38323e-22
1.67042e-22
1.97954e-22
2.31158e-22
2.66762e-22
3.04879e-22
3.45631e-22
3.89142e-22
4.35542e-22
4.84963e-22
5.37543e-22
5.93421e-22
6.52737e-22
7.15639e-22
7.82272e-22
8.5279e-22
9.27346e-22
1.0061e-21
1.08921e-21
1.17684e-21
1.26916e-21
1.36635e-21
1.46858e-21
1.57603e-21
1.68888e-21
1.80733e-21
1.93157e-21
2.0618e-21
2.19822e-21
2.34104e-21
2.49048e-21
2.64675e-21
2.81009e-21
2.98071e-21
3.15885e-21
3.34476e-21
3.53869e-21
3.74088e-21
3.95161e-21
4.17113e-21
4.39972e-21
4.63766e-21
4.88525e-21
5.14278e-21
5.41054e-21
5.68886e-21
5.97806e-21
6.27846e-21
6.5904e-21
6.91423e-21
7.25031e-21
7.599e-21
7.96068e-21
8.33573e-21
8.72455e-21
9.12756e-21
9.54516e-21
9.97779e-21
1.04259e-20
1.08899e-20
1.13704e-20
1.18677e-20
1.23824e-20
1.29149e-20
1.34659e-20
1.40358e-20
1.46253e-20
1.52348e-20
1.58649e-20
1.65163e-20
1.71896e-20
1.78855e-20
1.86045e-20
1.93473e-20
2.01147e-20
2.09073e-20
2.1726e-20
2.25714e-20
2.34443e-20
2.43456e-20
2.5276e-20
2.62365e-20
2.72278e-20
2.8251e-20
2.93068e-20
3.03963e-20
3.15205e-20
3.26803e-20
3.38768e-20
3.5111e-20
3.63842e-20
3.76973e-20
3.90516e-20
4.04483e-20
4.18885e-20
4.33736e-20
4.49049e-20
4.64838e-20
4.81115e-20
4.97896e-20
5.15195e-20
5.33026e-20
5.51407e-20
5.70352e-20
5.89879e-20
6.10003e-20
6.30743e-20
6.52117e-20
6.74143e-20
6.9684e-20
7.20227e-20
7.44325e-20
7.69154e-20
7.94737e-20
8.21094e-20
8.48248e-20
8.76223e-20
9.05042e-20
9.34731e-20
9.65313e-20
9.96817e-20
1.02927e-19
1.06269e-19
1.09712e-19
1.13258e-19
1.16911e-19
1.20673e-19
1.24547e-19
1.28537e-19
1.32647e-19
1.36879e-19
1.41237e-19
1.45725e-19
1.50347e-19
1.55106e-19
1.60007e-19
1.65054e-19
1.70251e-19
1.75601e-19
1.81111e-19
1.86784e-19
1.92625e-19
1.98639e-19
2.04831e-19
2.11207e-19
2.1777e-19
2.24528e-19
2.31485e-19
2.38648e-19
2.46022e-19
2.53613e-19
2.61428e-19
2.69473e-19
2.77755e-19
2.86281e-19
2.95058e-19
3.04092e-19
3.13392e-19
3.22965e-19
3.32819e-19
3.42962e-19
3.53402e-19
3.64149e-19
3.7521e-19
3.86595e-19
3.98313e-19
4.10374e-19
4.22788e-19
4.35564e-19
4.48714e-19
4.62247e-19
4.76176e-19
4.9051e-19
5.05263e-19
5.20446e-19
5.36071e-19
5.52151e-19
5.68699e-19
5.85728e-19
6.03252e-19
6.21286e-19
6.39843e-19
6.58939e-19
6.7859e-19
6.9881e-19
7.19617e-19
7.41026e-19
7.63056e-19
7.85723e-19
8.09047e-19
8.33044e-19
8.57736e-19
8.83141e-19
9.0928e-19
9.36174e-19
9.63843e-19
9.9231e-19
1.0216e-18
1.05173e-18
1.08273e-18
1.11462e-18
1.14743e-18
1.18118e-18
1.2159e-18
1.25162e-18
1.28837e-18
1.32616e-18
1.36505e-18
1.40504e-18
1.44619e-18
1.48851e-18
1.53204e-18
1.57681e-18
1.62287e-18
1.67024e-18
1.71896e-18
1.76908e-18
1.82062e-18
1.87363e-18
1.92815e-18
1.98423e-18
2.0419e-18
2.1012e-18
2.1622e-18
2.22492e-18
2.28943e-18
2.35577e-18
2.42398e-18
2.49413e-18
2.56626e-18
2.64044e-18
2.71671e-18
2.79514e-18
2.87578e-18
2.9587e-18
3.04396e-18
3.13161e-18
3.22174e-18
3.3144e-18
3.40967e-18
3.50762e-18
3.60832e-18
3.71184e-18
3.81827e-18
3.92767e-18
4.04015e-18
4.15576e-18
4.27462e-18
4.39679e-18
4.52237e-18
4.65146e-18
4.78415e-18
4.92053e-18
5.0607e-18
5.20478e-18
5.35286e-18
5.50505e-18
5.66146e-18
5.82221e-18
5.98741e-18
6.15718e-18
6.33165e-18
6.51094e-18
6.69517e-18
6.88448e-18
7.07902e-18
7.2789e-18
7.48428e-18
7.69531e-18
7.91213e-18
8.13489e-18
8.36376e-18
8.59889e-18
8.84045e-18
9.08861e-18
9.34354e-18
9.60542e-18
9.87443e-18
1.01508e-17
1.04346e-17
1.07261e-17
1.10256e-17
1.13331e-17
1.1649e-17
1.19734e-17
1.23066e-17
1.26487e-17
1.30001e-17
1.33608e-17
1.37313e-17
1.41117e-17
1.45023e-17
1.49034e-17
1.53152e-17
1.57379e-17
1.61719e-17
1.66174e-17
1.70748e-17
1.75443e-17
1.80262e-17
1.85208e-17
1.90285e-17
1.95495e-17
2.00843e-17
2.06331e-17
2.11962e-17
2.1774e-17
2.2367e-17
2.29753e-17
2.35995e-17
2.42398e-17
2.48967e-17
2.55705e-17
2.62617e-17
2.69706e-17
2.76976e-17
2.84432e-17
2.92078e-17
2.99917e-17
3.07956e-17
3.16197e-17
3.24645e-17
3.33304e-17
3.4218e-17
3.51276e-17
3.60598e-17
3.7015e-17
3.79936e-17
3.89961e-17
4.0023e-17
4.10748e-17
4.21519e-17
4.32549e-17
4.4384e-17
4.55399e-17
4.67229e-17
4.79336e-17
4.91723e-17
5.04395e-17
5.17356e-17
5.30611e-17
5.44162e-17
5.58014e-17
5.7217e-17
5.86633e-17
6.01407e-17
6.16494e-17
6.31896e-17
6.47615e-17
6.63653e-17
6.8001e-17
6.96687e-17
7.13684e-17
7.31e-17
7.48633e-17
7.66581e-17
7.84841e-17
8.03408e-17
8.22277e-17
8.41441e-17
8.60892e-17
8.80622e-17
9.00619e-17
9.20871e-17
9.41363e-17
9.62079e-17
9.83e-17
1.0041e-16
1.02537e-16
1.04677e-16
1.06827e-16
1.08984e-16
1.11145e-16
1.13304e-16
1.15459e-16
1.17603e-16
1.19731e-16
1.21838e-16
1.23916e-16
1.25957e-16
1.27955e-16
1.299e-16
1.31782e-16
1.33591e-16
1.35316e-16
1.36943e-16
1.3846e-16
1.39851e-16
1.41101e-16
1.42193e-16
1.43107e-16
1.43825e-16
1.44326e-16
1.44588e-16
7.6257e-24
2.44523e-23
4.29549e-23
6.32416e-23
8.54093e-23
1.09541e-22
1.35719e-22
1.64027e-22
1.94559e-22
2.27414e-22
2.627e-22
3.00533e-22
3.4103e-22
3.84317e-22
4.30523e-22
4.7978e-22
5.32224e-22
5.87994e-22
6.47232e-22
7.10084e-22
7.76699e-22
8.47231e-22
9.21833e-22
1.00067e-21
1.0839e-21
1.17169e-21
1.26421e-21
1.36164e-21
1.46416e-21
1.57194e-21
1.68519e-21
1.80409e-21
1.92884e-21
2.05964e-21
2.1967e-21
2.34023e-21
2.49045e-21
2.64758e-21
2.81185e-21
2.9835e-21
3.16276e-21
3.34988e-21
3.54511e-21
3.74871e-21
3.96095e-21
4.1821e-21
4.41244e-21
4.65225e-21
4.90183e-21
5.16147e-21
5.4315e-21
5.71223e-21
6.00397e-21
6.30708e-21
6.62188e-21
6.94874e-21
7.28801e-21
7.64008e-21
8.00531e-21
8.38411e-21
8.77687e-21
9.18402e-21
9.60598e-21
1.00432e-20
1.04961e-20
1.09651e-20
1.14508e-20
1.19537e-20
1.24741e-20
1.30127e-20
1.357e-20
1.41465e-20
1.47428e-20
1.53595e-20
1.59971e-20
1.66563e-20
1.73377e-20
1.8042e-20
1.87697e-20
1.95217e-20
2.02986e-20
2.11012e-20
2.19301e-20
2.27862e-20
2.36702e-20
2.4583e-20
2.55254e-20
2.64982e-20
2.75024e-20
2.85389e-20
2.96085e-20
3.07124e-20
3.18514e-20
3.30266e-20
3.4239e-20
3.54898e-20
3.678e-20
3.81108e-20
3.94834e-20
4.0899e-20
4.23588e-20
4.38642e-20
4.54164e-20
4.70169e-20
4.8667e-20
5.03682e-20
5.2122e-20
5.393e-20
5.57935e-20
5.77145e-20
5.96944e-20
6.1735e-20
6.3838e-20
6.60054e-20
6.8239e-20
7.05406e-20
7.29124e-20
7.53563e-20
7.78744e-20
8.04689e-20
8.31421e-20
8.58962e-20
8.87335e-20
9.16566e-20
9.46679e-20
9.777e-20
1.00965e-19
1.04257e-19
1.07648e-19
1.1114e-19
1.14737e-19
1.18442e-19
1.22258e-19
1.26189e-19
1.30237e-19
1.34405e-19
1.38699e-19
1.4312e-19
1.47673e-19
1.52362e-19
1.57191e-19
1.62163e-19
1.67283e-19
1.72556e-19
1.77984e-19
1.83574e-19
1.8933e-19
1.95256e-19
2.01358e-19
2.07641e-19
2.1411e-19
2.20769e-19
2.27626e-19
2.34685e-19
2.41953e-19
2.49435e-19
2.57138e-19
2.65067e-19
2.73231e-19
2.81634e-19
2.90285e-19
2.99191e-19
3.08358e-19
3.17795e-19
3.27509e-19
3.37508e-19
3.478e-19
3.58395e-19
3.693e-19
3.80524e-19
3.92077e-19
4.03968e-19
4.16207e-19
4.28804e-19
4.4177e-19
4.55114e-19
4.68847e-19
4.82982e-19
4.97529e-19
5.125e-19
5.27908e-19
5.43764e-19
5.60082e-19
5.76875e-19
5.94157e-19
6.11941e-19
6.30242e-19
6.49075e-19
6.68454e-19
6.88396e-19
7.08917e-19
7.30033e-19
7.5176e-19
7.74117e-19
7.97122e-19
8.20792e-19
8.45147e-19
8.70206e-19
8.95989e-19
9.22517e-19
9.4981e-19
9.77892e-19
1.00678e-18
1.03651e-18
1.06709e-18
1.09855e-18
1.13092e-18
1.16421e-18
1.19847e-18
1.23371e-18
1.26996e-18
1.30725e-18
1.34562e-18
1.38508e-18
1.42567e-18
1.46743e-18
1.51038e-18
1.55456e-18
1.60001e-18
1.64675e-18
1.69483e-18
1.74429e-18
1.79515e-18
1.84746e-18
1.90127e-18
1.95661e-18
2.01352e-18
2.07205e-18
2.13225e-18
2.19416e-18
2.25783e-18
2.3233e-18
2.39063e-18
2.45987e-18
2.53107e-18
2.60429e-18
2.67958e-18
2.757e-18
2.8366e-18
2.91846e-18
3.00262e-18
3.08916e-18
3.17813e-18
3.26962e-18
3.36367e-18
3.46038e-18
3.5598e-18
3.66201e-18
3.76709e-18
3.87512e-18
3.98618e-18
4.10034e-18
4.21771e-18
4.33835e-18
4.46237e-18
4.58985e-18
4.72088e-18
4.85557e-18
4.99401e-18
5.1363e-18
5.28256e-18
5.43287e-18
5.58736e-18
5.74614e-18
5.90932e-18
6.07702e-18
6.24936e-18
6.42647e-18
6.60847e-18
6.7955e-18
6.98768e-18
7.18516e-18
7.38808e-18
7.59657e-18
7.8108e-18
8.03091e-18
8.25706e-18
8.4894e-18
8.7281e-18
8.97333e-18
9.22527e-18
9.48407e-18
9.74994e-18
1.0023e-17
1.03036e-17
1.05917e-17
1.08877e-17
1.11917e-17
1.1504e-17
1.18247e-17
1.2154e-17
1.24923e-17
1.28396e-17
1.31963e-17
1.35626e-17
1.39388e-17
1.4325e-17
1.47216e-17
1.51288e-17
1.55468e-17
1.59761e-17
1.64167e-17
1.68691e-17
1.73335e-17
1.78101e-17
1.82995e-17
1.88017e-17
1.93172e-17
1.98462e-17
2.03892e-17
2.09464e-17
2.15183e-17
2.2105e-17
2.27071e-17
2.33248e-17
2.39586e-17
2.46089e-17
2.52759e-17
2.59602e-17
2.6662e-17
2.73819e-17
2.81202e-17
2.88774e-17
2.96539e-17
3.04501e-17
3.12664e-17
3.21033e-17
3.29613e-17
3.38408e-17
3.47422e-17
3.56661e-17
3.66129e-17
3.75831e-17
3.85771e-17
3.95954e-17
4.06385e-17
4.17069e-17
4.2801e-17
4.39213e-17
4.50684e-17
4.62426e-17
4.74445e-17
4.86745e-17
4.9933e-17
5.12204e-17
5.25373e-17
5.38841e-17
5.5261e-17
5.66686e-17
5.81071e-17
5.9577e-17
6.10784e-17
6.26117e-17
6.41772e-17
6.5775e-17
6.74052e-17
6.9068e-17
7.07635e-17
7.24916e-17
7.42523e-17
7.60454e-17
7.78706e-17
7.97277e-17
8.16163e-17
8.35357e-17
8.54855e-17
8.74647e-17
8.94724e-17
9.15077e-17
9.35692e-17
9.56555e-17
9.7765e-17
9.98957e-17
1.02046e-16
1.04212e-16
1.06393e-16
1.08585e-16
1.10785e-16
1.12989e-16
1.15193e-16
1.17392e-16
1.19582e-16
1.21757e-16
1.2391e-16
1.26036e-16
1.28126e-16
1.30173e-16
1.32167e-16
1.341e-16
1.35959e-16
1.37734e-16
1.39412e-16
1.40978e-16
1.42418e-16
1.43716e-16
1.44852e-16
1.45808e-16
1.46562e-16
1.47091e-16
1.4737e-16
7.50011e-24
2.40415e-23
4.22074e-23
6.21041e-23
8.38417e-23
1.07522e-22
1.33243e-22
1.61104e-22
1.91206e-22
2.23655e-22
2.58563e-22
2.96043e-22
3.36217e-22
3.79208e-22
4.25143e-22
4.74155e-22
5.26377e-22
5.81949e-22
6.41012e-22
7.03712e-22
7.70198e-22
8.40624e-22
9.15146e-22
9.93925e-22
1.07712e-21
1.16491e-21
1.25747e-21
1.35496e-21
1.45757e-21
1.5655e-21
1.67892e-21
1.79803e-21
1.92304e-21
2.05414e-21
2.19155e-21
2.33549e-21
2.48617e-21
2.64382e-21
2.80867e-21
2.98096e-21
3.16093e-21
3.34883e-21
3.54492e-21
3.74946e-21
3.96272e-21
4.18497e-21
4.4165e-21
4.6576e-21
4.90856e-21
5.1697e-21
5.44132e-21
5.72374e-21
6.0173e-21
6.32234e-21
6.6392e-21
6.96824e-21
7.30983e-21
7.66435e-21
8.03218e-21
8.41372e-21
8.80939e-21
9.21959e-21
9.64476e-21
1.00854e-20
1.05418e-20
1.10146e-20
1.15042e-20
1.20112e-20
1.2536e-20
1.30791e-20
1.36411e-20
1.42226e-20
1.4824e-20
1.54461e-20
1.60894e-20
1.67545e-20
1.7442e-20
1.81527e-20
1.88871e-20
1.96461e-20
2.04302e-20
2.12403e-20
2.20771e-20
2.29413e-20
2.38338e-20
2.47554e-20
2.5707e-20
2.66893e-20
2.77034e-20
2.87501e-20
2.98304e-20
3.09452e-20
3.20956e-20
3.32827e-20
3.45074e-20
3.57709e-20
3.70742e-20
3.84187e-20
3.98054e-20
4.12356e-20
4.27106e-20
4.42316e-20
4.58001e-20
4.74173e-20
4.90848e-20
5.08039e-20
5.25762e-20
5.44033e-20
5.62867e-20
5.82281e-20
6.02291e-20
6.22915e-20
6.44172e-20
6.66079e-20
6.88655e-20
7.1192e-20
7.35894e-20
7.60598e-20
7.86053e-20
8.1228e-20
8.39303e-20
8.67145e-20
8.95828e-20
9.25379e-20
9.55822e-20
9.87184e-20
1.01949e-19
1.05277e-19
1.08705e-19
1.12236e-19
1.15873e-19
1.19619e-19
1.23477e-19
1.27451e-19
1.31544e-19
1.35759e-19
1.401e-19
1.44571e-19
1.49175e-19
1.53916e-19
1.58799e-19
1.63827e-19
1.69004e-19
1.74335e-19
1.79825e-19
1.85478e-19
1.91298e-19
1.97291e-19
2.03462e-19
2.09815e-19
2.16356e-19
2.23091e-19
2.30025e-19
2.37164e-19
2.44513e-19
2.5208e-19
2.5987e-19
2.67889e-19
2.76145e-19
2.84643e-19
2.93392e-19
3.02399e-19
3.1167e-19
3.21214e-19
3.31038e-19
3.4115e-19
3.5156e-19
3.62274e-19
3.73303e-19
3.84655e-19
3.9634e-19
4.08366e-19
4.20745e-19
4.33485e-19
4.46598e-19
4.60094e-19
4.73984e-19
4.8828e-19
5.02993e-19
5.18135e-19
5.33719e-19
5.49756e-19
5.66261e-19
5.83246e-19
6.00725e-19
6.18712e-19
6.37223e-19
6.56271e-19
6.75872e-19
6.96043e-19
7.16799e-19
7.38156e-19
7.60133e-19
7.82746e-19
8.06014e-19
8.29956e-19
8.5459e-19
8.79937e-19
9.06016e-19
9.32849e-19
9.60456e-19
9.8886e-19
1.01808e-18
1.04815e-18
1.07908e-18
1.11091e-18
1.14364e-18
1.17733e-18
1.21198e-18
1.24762e-18
1.28429e-18
1.32201e-18
1.36082e-18
1.40074e-18
1.4418e-18
1.48404e-18
1.52749e-18
1.57218e-18
1.61815e-18
1.66543e-18
1.71407e-18
1.76409e-18
1.81554e-18
1.86846e-18
1.92289e-18
1.97887e-18
2.03644e-18
2.09565e-18
2.15655e-18
2.21917e-18
2.28358e-18
2.34981e-18
2.41792e-18
2.48796e-18
2.55999e-18
2.63406e-18
2.71022e-18
2.78854e-18
2.86907e-18
2.95187e-18
3.03702e-18
3.12456e-18
3.21457e-18
3.30712e-18
3.40227e-18
3.5001e-18
3.60068e-18
3.70408e-18
3.81039e-18
3.91968e-18
4.03203e-18
4.14753e-18
4.26626e-18
4.38831e-18
4.51377e-18
4.64274e-18
4.77531e-18
4.91157e-18
5.05163e-18
5.19559e-18
5.34355e-18
5.49563e-18
5.65193e-18
5.81257e-18
5.97766e-18
6.14732e-18
6.32169e-18
6.50087e-18
6.68501e-18
6.87423e-18
7.06867e-18
7.26847e-18
7.47377e-18
7.68471e-18
7.90146e-18
8.12416e-18
8.35297e-18
8.58805e-18
8.82956e-18
9.07768e-18
9.33258e-18
9.59444e-18
9.86344e-18
1.01398e-17
1.04236e-17
1.07152e-17
1.10147e-17
1.13223e-17
1.16382e-17
1.19627e-17
1.22959e-17
1.26382e-17
1.29897e-17
1.33506e-17
1.37213e-17
1.41019e-17
1.44927e-17
1.4894e-17
1.5306e-17
1.57291e-17
1.61634e-17
1.66093e-17
1.7067e-17
1.7537e-17
1.80193e-17
1.85145e-17
1.90227e-17
1.95444e-17
2.00798e-17
2.06292e-17
2.11931e-17
2.17718e-17
2.23656e-17
2.29749e-17
2.36001e-17
2.42415e-17
2.48996e-17
2.55746e-17
2.62671e-17
2.69775e-17
2.77061e-17
2.84533e-17
2.92197e-17
3.00055e-17
3.08114e-17
3.16376e-17
3.24847e-17
3.33532e-17
3.42434e-17
3.51558e-17
3.6091e-17
3.70494e-17
3.80314e-17
3.90376e-17
4.00684e-17
4.11244e-17
4.2206e-17
4.33136e-17
4.44479e-17
4.56092e-17
4.6798e-17
4.80148e-17
4.92602e-17
5.05344e-17
5.18381e-17
5.31715e-17
5.45353e-17
5.59297e-17
5.73551e-17
5.8812e-17
6.03006e-17
6.18213e-17
6.33744e-17
6.49601e-17
6.65786e-17
6.82301e-17
6.99148e-17
7.16326e-17
7.33836e-17
7.51677e-17
7.69848e-17
7.88346e-17
8.07169e-17
8.26313e-17
8.45772e-17
8.65539e-17
8.85608e-17
9.05969e-17
9.26612e-17
9.47524e-17
9.68691e-17
9.90097e-17
1.01172e-16
1.03355e-16
1.05555e-16
1.07769e-16
1.09996e-16
1.12231e-16
1.14472e-16
1.16713e-16
1.1895e-16
1.21178e-16
1.23392e-16
1.25586e-16
1.27752e-16
1.29884e-16
1.31973e-16
1.34011e-16
1.35986e-16
1.3789e-16
1.39709e-16
1.41432e-16
1.43043e-16
1.44527e-16
1.45867e-16
1.47044e-16
1.48038e-16
1.48825e-16
1.4938e-16
1.49674e-16
7.39488e-24
2.36972e-23
4.15816e-23
6.11487e-23
8.25132e-23
1.0579e-22
1.31091e-22
1.58529e-22
1.88216e-22
2.20264e-22
2.54791e-22
2.91913e-22
3.31751e-22
3.74429e-22
4.20073e-22
4.68815e-22
5.20787e-22
5.76127e-22
6.34977e-22
6.97481e-22
7.63788e-22
8.34053e-22
9.0843e-22
9.87083e-22
1.07018e-21
1.15788e-21
1.25037e-21
1.34782e-21
1.45041e-21
1.55834e-21
1.67179e-21
1.79097e-21
1.91607e-21
2.04731e-21
2.18488e-21
2.32902e-21
2.47994e-21
2.63788e-21
2.80306e-21
2.97572e-21
3.15612e-21
3.3445e-21
3.54113e-21
3.74626e-21
3.96017e-21
4.18314e-21
4.41545e-21
4.6574e-21
4.90929e-21
5.17142e-21
5.44412e-21
5.72771e-21
6.02251e-21
6.32889e-21
6.64717e-21
6.97774e-21
7.32095e-21
7.6772e-21
8.04686e-21
8.43034e-21
8.82806e-21
9.24044e-21
9.66792e-21
1.01109e-20
1.057e-20
1.10454e-20
1.15379e-20