/*--------------------------------*- C++ -*----------------------------------*\
  =========                 |
  \\      /  F ield         | OpenFOAM: The Open Source CFD Toolbox
   \\    /   O peration     | Website:  https://openfoam.org
    \\  /    A nd           | Version:  dev
     \\/     M anipulation  |
\*---------------------------------------------------------------------------*/
FoamFile
{
    format      ascii;
    class       volScalarField;
    location    "0.9";
    object      Exp1;
}
// * * * * * * * * * * * * * * * * * * * * * * * * * * * * * * * * * * * * * //

dimensions      [0 0 0 0 0 0 0];

internalField   uniform 0;

boundaryField
{
    frontAndBack
    {
        type            empty;
    }
    inlet
    {
        type            calculated;
        value           uniform 0;
    }
    outlet
    {
        type            calculated;
        value           uniform 0;
    }
    substrate
    {
        type            calculated;
        value           nonuniform List<scalar> 
400
(
2.3248e-22
7.40461e-22
1.29933e-21
1.90674e-21
2.56311e-21
3.27071e-21
4.03178e-21
4.84867e-21
5.72398e-21
6.66057e-21
7.66148e-21
8.72987e-21
9.86906e-21
1.10824e-20
1.23735e-20
1.37458e-20
1.5203e-20
1.67488e-20
1.83869e-20
2.01212e-20
2.19555e-20
2.38938e-20
2.59401e-20
2.80986e-20
3.03733e-20
3.27686e-20
3.52889e-20
3.79385e-20
4.0722e-20
4.36441e-20
4.67096e-20
4.99232e-20
5.32901e-20
5.68152e-20
6.05038e-20
6.43612e-20
6.83929e-20
7.26046e-20
7.70018e-20
8.15907e-20
8.63771e-20
9.13672e-20
9.65675e-20
1.01984e-19
1.07624e-19
1.13495e-19
1.19602e-19
1.25954e-19
1.32557e-19
1.3942e-19
1.46549e-19
1.53954e-19
1.61642e-19
1.69621e-19
1.77901e-19
1.86491e-19
1.95398e-19
2.04633e-19
2.14206e-19
2.24125e-19
2.34403e-19
2.45048e-19
2.56071e-19
2.67485e-19
2.79299e-19
2.91526e-19
3.04178e-19
3.17267e-19
3.30806e-19
3.44808e-19
3.59286e-19
3.74254e-19
3.89726e-19
4.05718e-19
4.22243e-19
4.39318e-19
4.56958e-19
4.75181e-19
4.94001e-19
5.13438e-19
5.33509e-19
5.54231e-19
5.75625e-19
5.97709e-19
6.20504e-19
6.4403e-19
6.68307e-19
6.93359e-19
7.19208e-19
7.45876e-19
7.73387e-19
8.01765e-19
8.31037e-19
8.61227e-19
8.92362e-19
9.2447e-19
9.57578e-19
9.91716e-19
1.02691e-18
1.0632e-18
1.10061e-18
1.13918e-18
1.17893e-18
1.2199e-18
1.26214e-18
1.30566e-18
1.35052e-18
1.39675e-18
1.44438e-18
1.49347e-18
1.54405e-18
1.59617e-18
1.64986e-18
1.70518e-18
1.76218e-18
1.82089e-18
1.88138e-18
1.94369e-18
2.00788e-18
2.07399e-18
2.14209e-18
2.21223e-18
2.28447e-18
2.35887e-18
2.4355e-18
2.51442e-18
2.59569e-18
2.67938e-18
2.76557e-18
2.85432e-18
2.94571e-18
3.03981e-18
3.1367e-18
3.23647e-18
3.33919e-18
3.44496e-18
3.55385e-18
3.66596e-18
3.78137e-18
3.9002e-18
4.02252e-18
4.14845e-18
4.27809e-18
4.41154e-18
4.54891e-18
4.69032e-18
4.83587e-18
4.9857e-18
5.13992e-18
5.29865e-18
5.46203e-18
5.63019e-18
5.80326e-18
5.98138e-18
6.16471e-18
6.35338e-18
6.54755e-18
6.74738e-18
6.95302e-18
7.16465e-18
7.38243e-18
7.60653e-18
7.83714e-18
8.07444e-18
8.31863e-18
8.56988e-18
8.82842e-18
9.09443e-18
9.36813e-18
9.64975e-18
9.9395e-18
1.02376e-17
1.05443e-17
1.08599e-17
1.11845e-17
1.15185e-17
1.18621e-17
1.22156e-17
1.25792e-17
1.29532e-17
1.3338e-17
1.37339e-17
1.4141e-17
1.45599e-17
1.49907e-17
1.54338e-17
1.58896e-17
1.63584e-17
1.68406e-17
1.73365e-17
1.78465e-17
1.83711e-17
1.89106e-17
1.94655e-17
2.00361e-17
2.06229e-17
2.12264e-17
2.18469e-17
2.24851e-17
2.31413e-17
2.38161e-17
2.45099e-17
2.52234e-17
2.59569e-17
2.67112e-17
2.74867e-17
2.82841e-17
2.91039e-17
2.99467e-17
3.08133e-17
3.17041e-17
3.262e-17
3.35614e-17
3.45293e-17
3.55243e-17
3.6547e-17
3.75983e-17
3.8679e-17
3.97898e-17
4.09315e-17
4.21051e-17
4.33112e-17
4.45509e-17
4.5825e-17
4.71345e-17
4.84802e-17
4.98632e-17
5.12845e-17
5.2745e-17
5.42459e-17
5.57882e-17
5.73729e-17
5.90014e-17
6.06746e-17
6.23938e-17
6.41603e-17
6.59751e-17
6.78398e-17
6.97554e-17
7.17235e-17
7.37453e-17
7.58223e-17
7.7956e-17
8.01478e-17
8.23992e-17
8.47118e-17
8.70872e-17
8.95271e-17
9.2033e-17
9.46068e-17
9.72502e-17
9.99649e-17
1.02753e-16
1.05616e-16
1.08556e-16
1.11576e-16
1.14676e-16
1.1786e-16
1.21128e-16
1.24485e-16
1.27931e-16
1.31469e-16
1.35101e-16
1.38831e-16
1.42659e-16
1.46589e-16
1.50624e-16
1.54765e-16
1.59016e-16
1.6338e-16
1.67858e-16
1.72455e-16
1.77173e-16
1.82015e-16
1.86984e-16
1.92084e-16
1.97317e-16
2.02687e-16
2.08198e-16
2.13852e-16
2.19653e-16
2.25606e-16
2.31713e-16
2.37978e-16
2.44406e-16
2.51e-16
2.57764e-16
2.64703e-16
2.71821e-16
2.79121e-16
2.86609e-16
2.94288e-16
3.02165e-16
3.10242e-16
3.18525e-16
3.27019e-16
3.35729e-16
3.4466e-16
3.53818e-16
3.63206e-16
3.72832e-16
3.827e-16
3.92816e-16
4.03186e-16
4.13816e-16
4.24711e-16
4.35878e-16
4.47323e-16
4.59052e-16
4.71072e-16
4.8339e-16
4.96011e-16
5.08943e-16
5.22192e-16
5.35766e-16
5.49672e-16
5.63917e-16
5.78508e-16
5.93453e-16
6.08759e-16
6.24435e-16
6.40487e-16
6.56923e-16
6.73753e-16
6.90983e-16
7.08622e-16
7.26678e-16
7.4516e-16
7.64075e-16
7.83433e-16
8.03241e-16
8.23508e-16
8.44244e-16
8.65456e-16
8.87153e-16
9.09343e-16
9.32036e-16
9.55239e-16
9.78961e-16
1.00321e-15
1.028e-15
1.05333e-15
1.07921e-15
1.10565e-15
1.13265e-15
1.16023e-15
1.1884e-15
1.21715e-15
1.24649e-15
1.27643e-15
1.30698e-15
1.33814e-15
1.36991e-15
1.40229e-15
1.4353e-15
1.46892e-15
1.50317e-15
1.53803e-15
1.57351e-15
1.60961e-15
1.64631e-15
1.68362e-15
1.72152e-15
1.76e-15
1.79906e-15
1.83867e-15
1.87882e-15
1.91949e-15
1.96065e-15
2.00228e-15
2.04434e-15
2.0868e-15
2.12963e-15
2.17277e-15
2.21618e-15
2.25979e-15
2.30355e-15
2.34739e-15
2.39124e-15
2.43499e-15
2.47857e-15
2.52187e-15
2.56477e-15
2.60715e-15
2.64887e-15
2.68978e-15
2.72972e-15
2.76849e-15
2.80591e-15
2.84177e-15
2.87582e-15
2.90782e-15
2.9375e-15
2.96457e-15
2.98873e-15
3.00964e-15
3.02699e-15
3.04043e-15
3.04966e-15
3.05438e-15
)
;
    }
    Wall
    {
        type            calculated;
        value           nonuniform List<scalar> 
400
(
2.32476e-22
7.40446e-22
1.2993e-21
1.9067e-21
2.56305e-21
3.27063e-21
4.03168e-21
4.84853e-21
5.72381e-21
6.66037e-21
7.66123e-21
8.72958e-21
9.86872e-21
1.1082e-20
1.23731e-20
1.37453e-20
1.52024e-20
1.67481e-20
1.83862e-20
2.01204e-20
2.19546e-20
2.38928e-20
2.5939e-20
2.80974e-20
3.0372e-20
3.27672e-20
3.52874e-20
3.79369e-20
4.07204e-20
4.36424e-20
4.67077e-20
4.99213e-20
5.3288e-20
5.6813e-20
6.05015e-20
6.43588e-20
6.83904e-20
7.26019e-20
7.69991e-20
8.15878e-20
8.6374e-20
9.1364e-20
9.65641e-20
1.01981e-19
1.07621e-19
1.13491e-19
1.19598e-19
1.25949e-19
1.32552e-19
1.39415e-19
1.46544e-19
1.53949e-19
1.61636e-19
1.69616e-19
1.77896e-19
1.86484e-19
1.95392e-19
2.04627e-19
2.14199e-19
2.24118e-19
2.34395e-19
2.4504e-19
2.56063e-19
2.67476e-19
2.79291e-19
2.91517e-19
3.04169e-19
3.17258e-19
3.30796e-19
3.44797e-19
3.59275e-19
3.74243e-19
3.89715e-19
4.05706e-19
4.22231e-19
4.39305e-19
4.56945e-19
4.75167e-19
4.93987e-19
5.13423e-19
5.33493e-19
5.54215e-19
5.75608e-19
5.97692e-19
6.20486e-19
6.44011e-19
6.68289e-19
6.9334e-19
7.19187e-19
7.45854e-19
7.73365e-19
8.01743e-19
8.31013e-19
8.61202e-19
8.92337e-19
9.24443e-19
9.57551e-19
9.91688e-19
1.02689e-18
1.06317e-18
1.10058e-18
1.13914e-18
1.1789e-18
1.21987e-18
1.2621e-18
1.30562e-18
1.35048e-18
1.39671e-18
1.44434e-18
1.49343e-18
1.54401e-18
1.59612e-18
1.64982e-18
1.70514e-18
1.76213e-18
1.82084e-18
1.88133e-18
1.94364e-18
2.00782e-18
2.07393e-18
2.14203e-18
2.21217e-18
2.28441e-18
2.35881e-18
2.43544e-18
2.51435e-18
2.59562e-18
2.67931e-18
2.76549e-18
2.85424e-18
2.94563e-18
3.03973e-18
3.13662e-18
3.23638e-18
3.3391e-18
3.44486e-18
3.55375e-18
3.66586e-18
3.78127e-18
3.90009e-18
4.02242e-18
4.14834e-18
4.27798e-18
4.41142e-18
4.54879e-18
4.69019e-18
4.83575e-18
4.98557e-18
5.13978e-18
5.29851e-18
5.46189e-18
5.63004e-18
5.80311e-18
5.98123e-18
6.16455e-18
6.35321e-18
6.54738e-18
6.7472e-18
6.95284e-18
7.16446e-18
7.38223e-18
7.60633e-18
7.83694e-18
8.07423e-18
8.31841e-18
8.56966e-18
8.82818e-18
9.09419e-18
9.36789e-18
9.6495e-18
9.93924e-18
1.02373e-17
1.0544e-17
1.08596e-17
1.11842e-17
1.15182e-17
1.18618e-17
1.22152e-17
1.25788e-17
1.29529e-17
1.33377e-17
1.37335e-17
1.41407e-17
1.45595e-17
1.49903e-17
1.54334e-17
1.58892e-17
1.63579e-17
1.68401e-17
1.7336e-17
1.78461e-17
1.83706e-17
1.89101e-17
1.9465e-17
2.00356e-17
2.06224e-17
2.12258e-17
2.18464e-17
2.24845e-17
2.31407e-17
2.38154e-17
2.45093e-17
2.52227e-17
2.59563e-17
2.67105e-17
2.7486e-17
2.82834e-17
2.91031e-17
2.9946e-17
3.08125e-17
3.17033e-17
3.26191e-17
3.35606e-17
3.45284e-17
3.55233e-17
3.65461e-17
3.75974e-17
3.8678e-17
3.97888e-17
4.09305e-17
4.2104e-17
4.33101e-17
4.45498e-17
4.58238e-17
4.71332e-17
4.84789e-17
4.98619e-17
5.12831e-17
5.27436e-17
5.42445e-17
5.57867e-17
5.73715e-17
5.89999e-17
6.0673e-17
6.23922e-17
6.41586e-17
6.59734e-17
6.7838e-17
6.97536e-17
7.17216e-17
7.37434e-17
7.58204e-17
7.7954e-17
8.01457e-17
8.23971e-17
8.47096e-17
8.7085e-17
8.95247e-17
9.20306e-17
9.46044e-17
9.72477e-17
9.99624e-17
1.0275e-16
1.05613e-16
1.08554e-16
1.11573e-16
1.14673e-16
1.17857e-16
1.21125e-16
1.24482e-16
1.27928e-16
1.31466e-16
1.35098e-16
1.38827e-16
1.42655e-16
1.46585e-16
1.5062e-16
1.54761e-16
1.59012e-16
1.63376e-16
1.67854e-16
1.72451e-16
1.77169e-16
1.82011e-16
1.8698e-16
1.92079e-16
1.97312e-16
2.02682e-16
2.08192e-16
2.13846e-16
2.19648e-16
2.256e-16
2.31707e-16
2.37972e-16
2.444e-16
2.50993e-16
2.57758e-16
2.64696e-16
2.71813e-16
2.79114e-16
2.86601e-16
2.94281e-16
3.02157e-16
3.10234e-16
3.18517e-16
3.27011e-16
3.35721e-16
3.44651e-16
3.53808e-16
3.63197e-16
3.72822e-16
3.8269e-16
3.92806e-16
4.03176e-16
4.13805e-16
4.247e-16
4.35867e-16
4.47312e-16
4.59041e-16
4.7106e-16
4.83377e-16
4.95998e-16
5.0893e-16
5.22179e-16
5.35753e-16
5.49658e-16
5.63903e-16
5.78493e-16
5.93438e-16
6.08744e-16
6.24419e-16
6.4047e-16
6.56907e-16
6.73736e-16
6.90966e-16
7.08604e-16
7.2666e-16
7.45141e-16
7.64056e-16
7.83413e-16
8.03221e-16
8.23488e-16
8.44223e-16
8.65435e-16
8.87131e-16
9.09321e-16
9.32013e-16
9.55216e-16
9.78937e-16
1.00319e-15
1.02797e-15
1.0533e-15
1.07918e-15
1.10562e-15
1.13263e-15
1.16021e-15
1.18837e-15
1.21712e-15
1.24646e-15
1.2764e-15
1.30695e-15
1.33811e-15
1.36987e-15
1.40226e-15
1.43526e-15
1.46889e-15
1.50313e-15
1.53799e-15
1.57347e-15
1.60957e-15
1.64627e-15
1.68358e-15
1.72148e-15
1.75996e-15
1.79901e-15
1.83863e-15
1.87877e-15
1.91944e-15
1.9606e-15
2.00223e-15
2.04429e-15
2.08676e-15
2.12958e-15
2.17272e-15
2.21613e-15
2.25974e-15
2.3035e-15
2.34734e-15
2.39118e-15
2.43494e-15
2.47852e-15
2.52182e-15
2.56472e-15
2.6071e-15
2.64882e-15
2.68973e-15
2.72966e-15
2.76844e-15
2.80586e-15
2.84171e-15
2.87577e-15
2.90777e-15
2.93745e-15
2.96452e-15
2.98867e-15
3.00959e-15
3.02694e-15
3.04039e-15
3.04962e-15
3.05433e-15
)
;
    }
}


// ************************************************************************* //
