/*--------------------------------*- C++ -*----------------------------------*\
  =========                 |
  \\      /  F ield         | OpenFOAM: The Open Source CFD Toolbox
   \\    /   O peration     | Website:  https://openfoam.org
    \\  /    A nd           | Version:  dev
     \\/     M anipulation  |
\*---------------------------------------------------------------------------*/
FoamFile
{
    format      ascii;
    class       volScalarField;
    location    "0.9";
    object      N1;
}
// * * * * * * * * * * * * * * * * * * * * * * * * * * * * * * * * * * * * * //

dimensions      [0 0 0 0 0 0 0];

internalField   nonuniform List<scalar> 
8000
(
1.7651e-21
5.62334e-21
9.86939e-21
1.44856e-20
1.94751e-20
2.48555e-20
3.06436e-20
3.68575e-20
4.35173e-20
5.06447e-20
5.82631e-20
6.63967e-20
7.50709e-20
8.43117e-20
9.4146e-20
1.04601e-19
1.15705e-19
1.27486e-19
1.39973e-19
1.53195e-19
1.67182e-19
1.81965e-19
1.97575e-19
2.14042e-19
2.314e-19
2.49681e-19
2.68919e-19
2.89147e-19
3.10402e-19
3.32718e-19
3.56133e-19
3.80683e-19
4.06408e-19
4.33346e-19
4.61538e-19
4.91025e-19
5.21849e-19
5.54053e-19
5.87681e-19
6.22779e-19
6.59394e-19
6.97573e-19
7.37364e-19
7.78818e-19
8.21986e-19
8.66922e-19
9.13678e-19
9.62311e-19
1.01288e-18
1.06543e-18
1.12004e-18
1.17677e-18
1.23567e-18
1.29681e-18
1.36025e-18
1.42608e-18
1.49435e-18
1.56514e-18
1.63852e-18
1.71458e-18
1.79338e-18
1.87501e-18
1.95954e-18
2.04708e-18
2.1377e-18
2.23149e-18
2.32855e-18
2.42897e-18
2.53285e-18
2.64029e-18
2.75139e-18
2.86626e-18
2.98501e-18
3.10774e-18
3.23459e-18
3.36566e-18
3.50109e-18
3.64098e-18
3.78548e-18
3.93472e-18
4.08883e-18
4.24796e-18
4.41225e-18
4.58185e-18
4.75691e-18
4.9376e-18
5.12408e-18
5.3165e-18
5.51506e-18
5.71991e-18
5.93125e-18
6.14927e-18
6.37415e-18
6.6061e-18
6.84532e-18
7.09201e-18
7.34641e-18
7.60873e-18
7.87919e-18
8.15805e-18
8.44553e-18
8.74189e-18
9.04738e-18
9.36228e-18
9.68685e-18
1.00214e-17
1.03661e-17
1.07214e-17
1.10876e-17
1.14649e-17
1.18537e-17
1.22543e-17
1.2667e-17
1.30923e-17
1.35304e-17
1.39817e-17
1.44467e-17
1.49257e-17
1.54191e-17
1.59274e-17
1.64509e-17
1.69901e-17
1.75455e-17
1.81175e-17
1.87067e-17
1.93134e-17
1.99382e-17
2.05817e-17
2.12443e-17
2.19267e-17
2.26293e-17
2.33529e-17
2.40979e-17
2.4865e-17
2.56548e-17
2.6468e-17
2.73053e-17
2.81673e-17
2.90547e-17
2.99684e-17
3.0909e-17
3.18773e-17
3.28741e-17
3.39003e-17
3.49566e-17
3.60439e-17
3.71632e-17
3.83153e-17
3.95012e-17
4.07218e-17
4.19781e-17
4.32712e-17
4.46021e-17
4.59718e-17
4.73816e-17
4.88324e-17
5.03256e-17
5.18623e-17
5.34436e-17
5.5071e-17
5.67458e-17
5.84691e-17
6.02426e-17
6.20674e-17
6.39452e-17
6.58774e-17
6.78656e-17
6.99113e-17
7.20161e-17
7.41818e-17
7.641e-17
7.87026e-17
8.10613e-17
8.34879e-17
8.59845e-17
8.8553e-17
9.11953e-17
9.39136e-17
9.671e-17
9.95867e-17
1.02546e-16
1.0559e-16
1.08721e-16
1.11942e-16
1.15255e-16
1.18663e-16
1.22168e-16
1.25774e-16
1.29482e-16
1.33296e-16
1.37219e-16
1.41253e-16
1.45402e-16
1.49669e-16
1.54057e-16
1.5857e-16
1.63211e-16
1.67984e-16
1.72891e-16
1.77938e-16
1.83128e-16
1.88464e-16
1.93951e-16
1.99592e-16
2.05393e-16
2.11357e-16
2.1749e-16
2.23794e-16
2.30277e-16
2.36941e-16
2.43792e-16
2.50835e-16
2.58076e-16
2.6552e-16
2.73171e-16
2.81037e-16
2.89122e-16
2.97433e-16
3.05976e-16
3.14757e-16
3.23782e-16
3.33059e-16
3.42593e-16
3.52392e-16
3.62462e-16
3.72812e-16
3.83448e-16
3.94379e-16
4.05611e-16
4.17154e-16
4.29016e-16
4.41204e-16
4.53728e-16
4.66596e-16
4.79818e-16
4.93403e-16
5.07361e-16
5.21702e-16
5.36435e-16
5.51571e-16
5.6712e-16
5.83094e-16
5.99503e-16
6.1636e-16
6.33675e-16
6.51461e-16
6.6973e-16
6.88494e-16
7.07767e-16
7.27561e-16
7.47891e-16
7.6877e-16
7.90212e-16
8.12232e-16
8.34844e-16
8.58065e-16
8.81909e-16
9.06393e-16
9.31534e-16
9.57347e-16
9.8385e-16
1.01106e-15
1.039e-15
1.06768e-15
1.09712e-15
1.12735e-15
1.15838e-15
1.19023e-15
1.22292e-15
1.25648e-15
1.29093e-15
1.32628e-15
1.36256e-15
1.3998e-15
1.43802e-15
1.47724e-15
1.51749e-15
1.55879e-15
1.60117e-15
1.64465e-15
1.68927e-15
1.73505e-15
1.78202e-15
1.83021e-15
1.87964e-15
1.93035e-15
1.98238e-15
2.03574e-15
2.09048e-15
2.14663e-15
2.20421e-15
2.26328e-15
2.32385e-15
2.38597e-15
2.44968e-15
2.51501e-15
2.58199e-15
2.65068e-15
2.72111e-15
2.79331e-15
2.86734e-15
2.94324e-15
3.02104e-15
3.10079e-15
3.18254e-15
3.26634e-15
3.35222e-15
3.44024e-15
3.53045e-15
3.6229e-15
3.71763e-15
3.81469e-15
3.91415e-15
4.01605e-15
4.12045e-15
4.22739e-15
4.33695e-15
4.44917e-15
4.56411e-15
4.68182e-15
4.80238e-15
4.92583e-15
5.05225e-15
5.18168e-15
5.31419e-15
5.44985e-15
5.58872e-15
5.73086e-15
5.87633e-15
6.02521e-15
6.17755e-15
6.33343e-15
6.4929e-15
6.65604e-15
6.82291e-15
6.99357e-15
7.16809e-15
7.34655e-15
7.52899e-15
7.71549e-15
7.90611e-15
8.10091e-15
8.29996e-15
8.50331e-15
8.71101e-15
8.92314e-15
9.13973e-15
9.36084e-15
9.58652e-15
9.81681e-15
1.00517e-14
1.02914e-14
1.05357e-14
1.07848e-14
1.10386e-14
1.12972e-14
1.15606e-14
1.18287e-14
1.21016e-14
1.23792e-14
1.26615e-14
1.29484e-14
1.32399e-14
1.35359e-14
1.38362e-14
1.41409e-14
1.44497e-14
1.47624e-14
1.5079e-14
1.53992e-14
1.57227e-14
1.60492e-14
1.63786e-14
1.67104e-14
1.70442e-14
1.73797e-14
1.77162e-14
1.80534e-14
1.83906e-14
1.87271e-14
1.90623e-14
1.93953e-14
1.97252e-14
2.00512e-14
2.0372e-14
2.06867e-14
2.09938e-14
2.1292e-14
2.15798e-14
2.18556e-14
2.21175e-14
2.23636e-14
2.25919e-14
2.28e-14
2.29858e-14
2.31467e-14
2.32801e-14
2.33835e-14
2.34544e-14
2.34907e-14
1.72912e-21
5.54318e-21
9.7534e-21
1.43538e-20
1.93441e-20
2.4736e-20
3.05443e-20
3.67865e-20
4.34821e-20
5.06532e-20
5.83233e-20
6.65171e-20
7.52604e-20
8.45799e-20
9.4503e-20
1.05058e-19
1.16273e-19
1.28177e-19
1.408e-19
1.54172e-19
1.68324e-19
1.83288e-19
1.99094e-19
2.15775e-19
2.33365e-19
2.51898e-19
2.71407e-19
2.91929e-19
3.135e-19
3.36155e-19
3.59934e-19
3.84875e-19
4.11018e-19
4.38403e-19
4.67071e-19
4.97066e-19
5.2843e-19
5.61209e-19
5.95447e-19
6.31193e-19
6.68494e-19
7.07399e-19
7.47959e-19
7.90225e-19
8.34251e-19
8.8009e-19
9.278e-19
9.77437e-19
1.02906e-18
1.08273e-18
1.13851e-18
1.19645e-18
1.25664e-18
1.31913e-18
1.38399e-18
1.4513e-18
1.52112e-18
1.59353e-18
1.66861e-18
1.74644e-18
1.82709e-18
1.91065e-18
1.99721e-18
2.08685e-18
2.17966e-18
2.27574e-18
2.37518e-18
2.47808e-18
2.58454e-18
2.69467e-18
2.80856e-18
2.92634e-18
3.04811e-18
3.17399e-18
3.30409e-18
3.43855e-18
3.57748e-18
3.72102e-18
3.86931e-18
4.02247e-18
4.18065e-18
4.344e-18
4.51266e-18
4.68679e-18
4.86654e-18
5.05209e-18
5.24359e-18
5.44123e-18
5.64518e-18
5.85561e-18
6.07273e-18
6.29671e-18
6.52777e-18
6.76611e-18
7.01193e-18
7.26545e-18
7.52691e-18
7.79652e-18
8.07452e-18
8.36116e-18
8.65668e-18
8.96135e-18
9.27543e-18
9.59919e-18
9.93291e-18
1.02769e-17
1.06314e-17
1.09968e-17
1.13733e-17
1.17613e-17
1.21612e-17
1.25732e-17
1.29977e-17
1.34351e-17
1.38857e-17
1.435e-17
1.48283e-17
1.53211e-17
1.58287e-17
1.63515e-17
1.68901e-17
1.74449e-17
1.80163e-17
1.86048e-17
1.9211e-17
1.98353e-17
2.04782e-17
2.11403e-17
2.18221e-17
2.25243e-17
2.32473e-17
2.39919e-17
2.47585e-17
2.55479e-17
2.63608e-17
2.71976e-17
2.80593e-17
2.89464e-17
2.98598e-17
3.08001e-17
3.17682e-17
3.27648e-17
3.37907e-17
3.48469e-17
3.59341e-17
3.70533e-17
3.82053e-17
3.93912e-17
4.06118e-17
4.18682e-17
4.31613e-17
4.44924e-17
4.58623e-17
4.72723e-17
4.87234e-17
5.02169e-17
5.17539e-17
5.33357e-17
5.49636e-17
5.66389e-17
5.83629e-17
6.0137e-17
6.19626e-17
6.38412e-17
6.57742e-17
6.77634e-17
6.98101e-17
7.19161e-17
7.4083e-17
7.63125e-17
7.86064e-17
8.09666e-17
8.33949e-17
8.58931e-17
8.84634e-17
9.11076e-17
9.3828e-17
9.66265e-17
9.95055e-17
1.02467e-16
1.05514e-16
1.08648e-16
1.11872e-16
1.15188e-16
1.18599e-16
1.22107e-16
1.25716e-16
1.29428e-16
1.33246e-16
1.37173e-16
1.41212e-16
1.45365e-16
1.49637e-16
1.54031e-16
1.58549e-16
1.63195e-16
1.67974e-16
1.72888e-16
1.77941e-16
1.83137e-16
1.8848e-16
1.93974e-16
1.99624e-16
2.05433e-16
2.11405e-16
2.17546e-16
2.2386e-16
2.30352e-16
2.37026e-16
2.43888e-16
2.50943e-16
2.58195e-16
2.6565e-16
2.73315e-16
2.81194e-16
2.89293e-16
2.97618e-16
3.06176e-16
3.14972e-16
3.24014e-16
3.33307e-16
3.42859e-16
3.52676e-16
3.62766e-16
3.73135e-16
3.83792e-16
3.94745e-16
4.06e-16
4.17566e-16
4.29452e-16
4.41666e-16
4.54217e-16
4.67113e-16
4.80364e-16
4.93979e-16
5.07968e-16
5.22341e-16
5.37108e-16
5.52279e-16
5.67865e-16
5.83877e-16
6.00326e-16
6.17224e-16
6.34582e-16
6.52412e-16
6.70728e-16
6.8954e-16
7.08863e-16
7.2871e-16
7.49093e-16
7.70028e-16
7.91529e-16
8.1361e-16
8.36285e-16
8.59572e-16
8.83484e-16
9.08039e-16
9.33253e-16
9.59142e-16
9.85724e-16
1.01302e-15
1.04104e-15
1.06981e-15
1.09934e-15
1.12967e-15
1.16079e-15
1.19275e-15
1.22555e-15
1.25922e-15
1.29378e-15
1.32925e-15
1.36566e-15
1.40303e-15
1.44138e-15
1.48074e-15
1.52113e-15
1.56258e-15
1.60511e-15
1.64875e-15
1.69354e-15
1.73949e-15
1.78664e-15
1.83501e-15
1.88463e-15
1.93555e-15
1.98778e-15
2.04135e-15
2.09631e-15
2.15269e-15
2.21051e-15
2.26982e-15
2.33065e-15
2.39304e-15
2.45702e-15
2.52263e-15
2.58991e-15
2.6589e-15
2.72965e-15
2.80218e-15
2.87655e-15
2.9528e-15
3.03096e-15
3.11109e-15
3.19324e-15
3.27744e-15
3.36374e-15
3.4522e-15
3.54286e-15
3.63577e-15
3.73099e-15
3.82856e-15
3.92854e-15
4.03098e-15
4.13594e-15
4.24346e-15
4.35362e-15
4.46647e-15
4.58205e-15
4.70044e-15
4.8217e-15
4.94587e-15
5.07304e-15
5.20325e-15
5.33657e-15
5.47307e-15
5.61281e-15
5.75585e-15
5.90227e-15
6.05212e-15
6.20548e-15
6.36241e-15
6.52298e-15
6.68726e-15
6.85532e-15
7.02721e-15
7.20303e-15
7.38282e-15
7.56665e-15
7.75461e-15
7.94674e-15
8.14312e-15
8.34381e-15
8.54888e-15
8.75838e-15
8.97238e-15
9.19092e-15
9.41408e-15
9.6419e-15
9.87443e-15
1.01117e-14
1.03538e-14
1.06007e-14
1.08525e-14
1.11091e-14
1.13707e-14
1.16372e-14
1.19086e-14
1.21849e-14
1.24661e-14
1.27523e-14
1.30432e-14
1.33389e-14
1.36394e-14
1.39445e-14
1.42541e-14
1.45682e-14
1.48866e-14
1.5209e-14
1.55354e-14
1.58656e-14
1.61992e-14
1.6536e-14
1.68757e-14
1.7218e-14
1.75624e-14
1.79085e-14
1.82558e-14
1.86038e-14
1.89518e-14
1.92992e-14
1.96453e-14
1.99892e-14
2.03301e-14
2.06669e-14
2.09986e-14
2.13239e-14
2.16416e-14
2.19502e-14
2.22482e-14
2.25339e-14
2.28055e-14
2.30609e-14
2.3298e-14
2.35145e-14
2.3708e-14
2.38759e-14
2.40155e-14
2.4124e-14
2.41988e-14
2.42373e-14
1.69674e-21
5.4435e-21
9.57564e-21
1.41053e-20
1.90393e-20
2.43873e-20
3.01623e-20
3.63804e-20
4.30605e-20
5.02238e-20
5.78937e-20
6.6095e-20
7.48535e-20
8.41961e-20
9.41506e-20
1.04745e-19
1.16009e-19
1.27972e-19
1.40664e-19
1.54116e-19
1.68358e-19
1.83424e-19
1.99345e-19
2.16155e-19
2.33888e-19
2.52577e-19
2.7226e-19
2.92972e-19
3.1475e-19
3.37632e-19
3.61656e-19
3.86863e-19
4.13294e-19
4.40989e-19
4.69991e-19
5.00345e-19
5.32095e-19
5.65286e-19
5.99966e-19
6.36183e-19
6.73986e-19
7.13426e-19
7.54554e-19
7.97425e-19
8.42091e-19
8.8861e-19
9.37038e-19
9.87435e-19
1.03986e-18
1.09438e-18
1.15105e-18
1.20994e-18
1.27111e-18
1.33465e-18
1.4006e-18
1.46906e-18
1.54009e-18
1.61377e-18
1.69017e-18
1.76939e-18
1.8515e-18
1.93658e-18
2.02473e-18
2.11603e-18
2.21058e-18
2.30848e-18
2.40981e-18
2.51468e-18
2.6232e-18
2.73547e-18
2.85159e-18
2.97169e-18
3.09588e-18
3.22427e-18
3.357e-18
3.49417e-18
3.63593e-18
3.78241e-18
3.93374e-18
4.09007e-18
4.25154e-18
4.41829e-18
4.59049e-18
4.76828e-18
4.95184e-18
5.14133e-18
5.33691e-18
5.53878e-18
5.7471e-18
5.96207e-18
6.18388e-18
6.41273e-18
6.64882e-18
6.89236e-18
7.14356e-18
7.40266e-18
7.66987e-18
7.94543e-18
8.22959e-18
8.52259e-18
8.82469e-18
9.13615e-18
9.45725e-18
9.78826e-18
1.01295e-17
1.04812e-17
1.08437e-17
1.12173e-17
1.16023e-17
1.19991e-17
1.24081e-17
1.28294e-17
1.32636e-17
1.3711e-17
1.41719e-17
1.46468e-17
1.51361e-17
1.56401e-17
1.61594e-17
1.66942e-17
1.72452e-17
1.78128e-17
1.83974e-17
1.89995e-17
1.96196e-17
2.02584e-17
2.09162e-17
2.15936e-17
2.22913e-17
2.30097e-17
2.37496e-17
2.45114e-17
2.52959e-17
2.61037e-17
2.69355e-17
2.77919e-17
2.86737e-17
2.95815e-17
3.05162e-17
3.14785e-17
3.24692e-17
3.34892e-17
3.45392e-17
3.56201e-17
3.67328e-17
3.78782e-17
3.90573e-17
4.0271e-17
4.15203e-17
4.28062e-17
4.41298e-17
4.54921e-17
4.68943e-17
4.83375e-17
4.98228e-17
5.13515e-17
5.29248e-17
5.45439e-17
5.62102e-17
5.7925e-17
5.96897e-17
6.15057e-17
6.33745e-17
6.52975e-17
6.72762e-17
6.93124e-17
7.14075e-17
7.35634e-17
7.57815e-17
7.80639e-17
8.04121e-17
8.28282e-17
8.5314e-17
8.78715e-17
9.05027e-17
9.32097e-17
9.59946e-17
9.88595e-17
1.01807e-16
1.04839e-16
1.07958e-16
1.11166e-16
1.14467e-16
1.17862e-16
1.21354e-16
1.24946e-16
1.2864e-16
1.32441e-16
1.36349e-16
1.4037e-16
1.44504e-16
1.48757e-16
1.5313e-16
1.57628e-16
1.62254e-16
1.67011e-16
1.71904e-16
1.76935e-16
1.82108e-16
1.87428e-16
1.92899e-16
1.98524e-16
2.04308e-16
2.10256e-16
2.16371e-16
2.22659e-16
2.29123e-16
2.3577e-16
2.42604e-16
2.49629e-16
2.56852e-16
2.64278e-16
2.71912e-16
2.79759e-16
2.87826e-16
2.96119e-16
3.04643e-16
3.13406e-16
3.22413e-16
3.31671e-16
3.41186e-16
3.50966e-16
3.61019e-16
3.7135e-16
3.81968e-16
3.9288e-16
4.04095e-16
4.1562e-16
4.27464e-16
4.39634e-16
4.52141e-16
4.64992e-16
4.78198e-16
4.91767e-16
5.05708e-16
5.20033e-16
5.34751e-16
5.49872e-16
5.65408e-16
5.81368e-16
5.97765e-16
6.14609e-16
6.31912e-16
6.49688e-16
6.67946e-16
6.86702e-16
7.05967e-16
7.25754e-16
7.46078e-16
7.66952e-16
7.88391e-16
8.10409e-16
8.33021e-16
8.56243e-16
8.80089e-16
9.04578e-16
9.29724e-16
9.55545e-16
9.82058e-16
1.00928e-15
1.03723e-15
1.06593e-15
1.09539e-15
1.12564e-15
1.15669e-15
1.18857e-15
1.2213e-15
1.25489e-15
1.28937e-15
1.32477e-15
1.3611e-15
1.39839e-15
1.43666e-15
1.47593e-15
1.51624e-15
1.55761e-15
1.60006e-15
1.64362e-15
1.68832e-15
1.73419e-15
1.78126e-15
1.82954e-15
1.87909e-15
1.92992e-15
1.98206e-15
2.03556e-15
2.09043e-15
2.14673e-15
2.20447e-15
2.2637e-15
2.32444e-15
2.38675e-15
2.45065e-15
2.51618e-15
2.58339e-15
2.6523e-15
2.72297e-15
2.79543e-15
2.86973e-15
2.94591e-15
3.02401e-15
3.10408e-15
3.18616e-15
3.2703e-15
3.35655e-15
3.44496e-15
3.53557e-15
3.62844e-15
3.72362e-15
3.82116e-15
3.92111e-15
4.02353e-15
4.12847e-15
4.23599e-15
4.34614e-15
4.45899e-15
4.57459e-15
4.69301e-15
4.8143e-15
4.93852e-15
5.06573e-15
5.19601e-15
5.32942e-15
5.46601e-15
5.60585e-15
5.74902e-15
5.89558e-15
6.04559e-15
6.19913e-15
6.35626e-15
6.51705e-15
6.68157e-15
6.84989e-15
7.02209e-15
7.19823e-15
7.37838e-15
7.56261e-15
7.75099e-15
7.94359e-15
8.14048e-15
8.34173e-15
8.5474e-15
8.75755e-15
8.97226e-15
9.19157e-15
9.41556e-15
9.64428e-15
9.87778e-15
1.01161e-14
1.03593e-14
1.06075e-14
1.08606e-14
1.11187e-14
1.13818e-14
1.165e-14
1.19232e-14
1.22014e-14
1.24848e-14
1.27732e-14
1.30665e-14
1.33649e-14
1.36682e-14
1.39764e-14
1.42893e-14
1.4607e-14
1.49292e-14
1.52558e-14
1.55867e-14
1.59217e-14
1.62605e-14
1.6603e-14
1.69488e-14
1.72976e-14
1.7649e-14
1.80027e-14
1.83583e-14
1.87152e-14
1.90728e-14
1.94306e-14
1.97878e-14
2.01438e-14
2.04977e-14
2.08486e-14
2.11954e-14
2.15372e-14
2.18726e-14
2.22003e-14
2.25189e-14
2.28268e-14
2.31223e-14
2.34034e-14
2.36682e-14
2.39145e-14
2.41398e-14
2.43416e-14
2.45172e-14
2.46638e-14
2.47783e-14
2.48576e-14
2.48988e-14
1.66454e-21
5.33907e-21
9.38529e-21
1.38242e-20
1.8671e-20
2.39387e-20
2.96415e-20
3.57956e-20
4.24198e-20
4.95351e-20
5.71644e-20
6.53324e-20
7.40647e-20
8.33883e-20
9.33309e-20
1.03921e-19
1.15188e-19
1.27161e-19
1.3987e-19
1.53348e-19
1.67626e-19
1.82735e-19
1.9871e-19
2.15583e-19
2.3339e-19
2.52165e-19
2.71946e-19
2.92768e-19
3.14669e-19
3.37689e-19
3.61867e-19
3.87243e-19
4.13858e-19
4.41757e-19
4.70981e-19
5.01576e-19
5.33588e-19
5.67062e-19
6.02048e-19
6.38595e-19
6.76752e-19
7.16572e-19
7.58107e-19
8.01412e-19
8.46543e-19
8.93557e-19
9.42511e-19
9.93468e-19
1.04649e-18
1.10163e-18
1.15897e-18
1.21857e-18
1.28049e-18
1.34481e-18
1.41159e-18
1.48092e-18
1.55287e-18
1.62752e-18
1.70494e-18
1.78523e-18
1.86846e-18
1.95471e-18
2.04409e-18
2.13669e-18
2.23259e-18
2.33189e-18
2.4347e-18
2.54112e-18
2.65124e-18
2.76519e-18
2.88307e-18
3.005e-18
3.13109e-18
3.26146e-18
3.39625e-18
3.53558e-18
3.67957e-18
3.82838e-18
3.98212e-18
4.14096e-18
4.30504e-18
4.4745e-18
4.64951e-18
4.83023e-18
5.01682e-18
5.20945e-18
5.4083e-18
5.61354e-18
5.82537e-18
6.04397e-18
6.26954e-18
6.50228e-18
6.7424e-18
6.99011e-18
7.24564e-18
7.50921e-18
7.78105e-18
8.06139e-18
8.3505e-18
8.64862e-18
8.95601e-18
9.27295e-18
9.5997e-18
9.93655e-18
1.02838e-17
1.06417e-17
1.10107e-17
1.1391e-17
1.17829e-17
1.21868e-17
1.2603e-17
1.3032e-17
1.3474e-17
1.39294e-17
1.43987e-17
1.48822e-17
1.53803e-17
1.58935e-17
1.64222e-17
1.69668e-17
1.75278e-17
1.81057e-17
1.8701e-17
1.93141e-17
1.99456e-17
2.0596e-17
2.12659e-17
2.19558e-17
2.26663e-17
2.3398e-17
2.41515e-17
2.49274e-17
2.57264e-17
2.65491e-17
2.73962e-17
2.82685e-17
2.91666e-17
3.00913e-17
3.10433e-17
3.20235e-17
3.30326e-17
3.40715e-17
3.51411e-17
3.62421e-17
3.73756e-17
3.85423e-17
3.97434e-17
4.09798e-17
4.22524e-17
4.35624e-17
4.49107e-17
4.62985e-17
4.7727e-17
4.91972e-17
5.07103e-17
5.22677e-17
5.38704e-17
5.55199e-17
5.72175e-17
5.89645e-17
6.07624e-17
6.26125e-17
6.45164e-17
6.64756e-17
6.84916e-17
7.05661e-17
7.27007e-17
7.48971e-17
7.71571e-17
7.94825e-17
8.1875e-17
8.43367e-17
8.68694e-17
8.94752e-17
9.21561e-17
9.49142e-17
9.77517e-17
1.00671e-16
1.03674e-16
1.06763e-16
1.09941e-16
1.1321e-16
1.16573e-16
1.20033e-16
1.23591e-16
1.27251e-16
1.31016e-16
1.34888e-16
1.38871e-16
1.42967e-16
1.4718e-16
1.51514e-16
1.5597e-16
1.60554e-16
1.65267e-16
1.70115e-16
1.751e-16
1.80227e-16
1.85499e-16
1.9092e-16
1.96495e-16
2.02227e-16
2.08121e-16
2.14182e-16
2.20414e-16
2.26821e-16
2.33409e-16
2.40182e-16
2.47146e-16
2.54306e-16
2.61667e-16
2.69234e-16
2.77013e-16
2.85011e-16
2.93232e-16
3.01683e-16
3.1037e-16
3.193e-16
3.28479e-16
3.37914e-16
3.47611e-16
3.57579e-16
3.67823e-16
3.78352e-16
3.89174e-16
4.00295e-16
4.11724e-16
4.2347e-16
4.35541e-16
4.47945e-16
4.60691e-16
4.73789e-16
4.87247e-16
5.01077e-16
5.15286e-16
5.29886e-16
5.44886e-16
5.60298e-16
5.76132e-16
5.92399e-16
6.0911e-16
6.26278e-16
6.43915e-16
6.62032e-16
6.80642e-16
6.99759e-16
7.19394e-16
7.39563e-16
7.60278e-16
7.81554e-16
8.03406e-16
8.25849e-16
8.48897e-16
8.72566e-16
8.96873e-16
9.21834e-16
9.47466e-16
9.73786e-16
1.00081e-15
1.02856e-15
1.05705e-15
1.0863e-15
1.11634e-15
1.14717e-15
1.17882e-15
1.21132e-15
1.24468e-15
1.27892e-15
1.31407e-15
1.35015e-15
1.38719e-15
1.4252e-15
1.46421e-15
1.50425e-15
1.54534e-15
1.58751e-15
1.63079e-15
1.6752e-15
1.72077e-15
1.76753e-15
1.8155e-15
1.86473e-15
1.91524e-15
1.96706e-15
2.02022e-15
2.07475e-15
2.1307e-15
2.18809e-15
2.24696e-15
2.30734e-15
2.36928e-15
2.4328e-15
2.49795e-15
2.56476e-15
2.63328e-15
2.70354e-15
2.77559e-15
2.84947e-15
2.92522e-15
3.00289e-15
3.08252e-15
3.16416e-15
3.24785e-15
3.33364e-15
3.42159e-15
3.51173e-15
3.60412e-15
3.69882e-15
3.79587e-15
3.89532e-15
3.99724e-15
4.10167e-15
4.20868e-15
4.31832e-15
4.43065e-15
4.54572e-15
4.66361e-15
4.78436e-15
4.90804e-15
5.03472e-15
5.16446e-15
5.29731e-15
5.43336e-15
5.57266e-15
5.71528e-15
5.86129e-15
6.01076e-15
6.16375e-15
6.32034e-15
6.4806e-15
6.64459e-15
6.8124e-15
6.98408e-15
7.15972e-15
7.33938e-15
7.52314e-15
7.71106e-15
7.90322e-15
8.09969e-15
8.30054e-15
8.50584e-15
8.71565e-15
8.93005e-15
9.14909e-15
9.37285e-15
9.60138e-15
9.83475e-15
1.0073e-14
1.03162e-14
1.05644e-14
1.08176e-14
1.10759e-14
1.13393e-14
1.16078e-14
1.18815e-14
1.21604e-14
1.24445e-14
1.27337e-14
1.30281e-14
1.33276e-14
1.36323e-14
1.3942e-14
1.42567e-14
1.45763e-14
1.49008e-14
1.52299e-14
1.55636e-14
1.59017e-14
1.6244e-14
1.65903e-14
1.69403e-14
1.72938e-14
1.76505e-14
1.80099e-14
1.83718e-14
1.87356e-14
1.91008e-14
1.94669e-14
1.98333e-14
2.01993e-14
2.05641e-14
2.09269e-14
2.12867e-14
2.16427e-14
2.19936e-14
2.23382e-14
2.26752e-14
2.30031e-14
2.33203e-14
2.3625e-14
2.39154e-14
2.41894e-14
2.44446e-14
2.46786e-14
2.48888e-14
2.50724e-14
2.52261e-14
2.53468e-14
2.5431e-14
2.5475e-14
1.63414e-21
5.23997e-21
9.20494e-21
1.35522e-20
1.83026e-20
2.34739e-20
2.90835e-20
3.51497e-20
4.16922e-20
4.87327e-20
5.62941e-20
6.4401e-20
7.30789e-20
8.23546e-20
9.22556e-20
1.0281e-19
1.14048e-19
1.25998e-19
1.38691e-19
1.52158e-19
1.66432e-19
1.81544e-19
1.97529e-19
2.1442e-19
2.32252e-19
2.51061e-19
2.70884e-19
2.91759e-19
3.13722e-19
3.36815e-19
3.61077e-19
3.86549e-19
4.13274e-19
4.41295e-19
4.70656e-19
5.01403e-19
5.33582e-19
5.67241e-19
6.02428e-19
6.39194e-19
6.7759e-19
7.17669e-19
7.59484e-19
8.03092e-19
8.48547e-19
8.9591e-19
9.45239e-19
9.96595e-19
1.05004e-18
1.10564e-18
1.16346e-18
1.22357e-18
1.28604e-18
1.35094e-18
1.41834e-18
1.48832e-18
1.56095e-18
1.63632e-18
1.71451e-18
1.7956e-18
1.87967e-18
1.96682e-18
2.05713e-18
2.1507e-18
2.24763e-18
2.34801e-18
2.45195e-18
2.55954e-18
2.6709e-18
2.78614e-18
2.90537e-18
3.02871e-18
3.15627e-18
3.28818e-18
3.42456e-18
3.56555e-18
3.71129e-18
3.8619e-18
4.01753e-18
4.17833e-18
4.34444e-18
4.51602e-18
4.69323e-18
4.87623e-18
5.06519e-18
5.26028e-18
5.46169e-18
5.66958e-18
5.88416e-18
6.10562e-18
6.33414e-18
6.56995e-18
6.81325e-18
7.06425e-18
7.32319e-18
7.59028e-18
7.86577e-18
8.1499e-18
8.44292e-18
8.74509e-18
9.05667e-18
9.37793e-18
9.70916e-18
1.00506e-17
1.04027e-17
1.07656e-17
1.11396e-17
1.15252e-17
1.19226e-17
1.23321e-17
1.27542e-17
1.31891e-17
1.36373e-17
1.40992e-17
1.45751e-17
1.50654e-17
1.55705e-17
1.6091e-17
1.66272e-17
1.71795e-17
1.77486e-17
1.83347e-17
1.89385e-17
1.95604e-17
2.02009e-17
2.08607e-17
2.15402e-17
2.224e-17
2.29608e-17
2.3703e-17
2.44673e-17
2.52545e-17
2.6065e-17
2.68996e-17
2.77591e-17
2.8644e-17
2.95551e-17
3.04933e-17
3.14592e-17
3.24536e-17
3.34774e-17
3.45315e-17
3.56167e-17
3.67338e-17
3.78838e-17
3.90677e-17
4.02863e-17
4.15408e-17
4.28321e-17
4.41612e-17
4.55294e-17
4.69376e-17
4.8387e-17
4.98788e-17
5.14143e-17
5.29945e-17
5.46209e-17
5.62947e-17
5.80174e-17
5.97901e-17
6.16145e-17
6.3492e-17
6.5424e-17
6.74121e-17
6.9458e-17
7.15632e-17
7.37294e-17
7.59583e-17
7.82518e-17
8.06116e-17
8.30397e-17
8.55379e-17
8.81082e-17
9.07526e-17
9.34734e-17
9.62725e-17
9.91521e-17
1.02115e-16
1.05162e-16
1.08298e-16
1.11523e-16
1.14841e-16
1.18254e-16
1.21765e-16
1.25376e-16
1.29091e-16
1.32912e-16
1.36842e-16
1.40884e-16
1.45042e-16
1.49318e-16
1.53716e-16
1.58239e-16
1.62891e-16
1.67675e-16
1.72595e-16
1.77655e-16
1.82859e-16
1.8821e-16
1.93712e-16
1.9937e-16
2.05189e-16
2.11171e-16
2.17323e-16
2.23648e-16
2.30152e-16
2.36839e-16
2.43714e-16
2.50783e-16
2.5805e-16
2.65521e-16
2.73202e-16
2.81099e-16
2.89217e-16
2.97562e-16
3.0614e-16
3.14958e-16
3.24023e-16
3.3334e-16
3.42917e-16
3.52761e-16
3.62879e-16
3.73278e-16
3.83966e-16
3.94951e-16
4.0624e-16
4.17843e-16
4.29766e-16
4.42019e-16
4.54611e-16
4.6755e-16
4.80846e-16
4.94509e-16
5.08548e-16
5.22972e-16
5.37794e-16
5.53022e-16
5.68667e-16
5.84741e-16
6.01255e-16
6.18221e-16
6.3565e-16
6.53554e-16
6.71947e-16
6.9084e-16
7.10248e-16
7.30182e-16
7.50658e-16
7.71689e-16
7.9329e-16
8.15475e-16
8.38259e-16
8.61659e-16
8.8569e-16
9.10368e-16
9.3571e-16
9.61734e-16
9.88455e-16
1.01589e-15
1.04407e-15
1.07299e-15
1.10269e-15
1.13319e-15
1.16449e-15
1.19663e-15
1.22963e-15
1.2635e-15
1.29827e-15
1.33396e-15
1.37059e-15
1.40819e-15
1.44679e-15
1.4864e-15
1.52706e-15
1.56878e-15
1.6116e-15
1.65554e-15
1.70064e-15
1.74691e-15
1.79439e-15
1.84311e-15
1.89309e-15
1.94438e-15
1.997e-15
2.05098e-15
2.10636e-15
2.16318e-15
2.22145e-15
2.28123e-15
2.34255e-15
2.40545e-15
2.46995e-15
2.53611e-15
2.60396e-15
2.67354e-15
2.7449e-15
2.81807e-15
2.8931e-15
2.97003e-15
3.04891e-15
3.12978e-15
3.21269e-15
3.29769e-15
3.38482e-15
3.47413e-15
3.56568e-15
3.65952e-15
3.7557e-15
3.85426e-15
3.95528e-15
4.05879e-15
4.16487e-15
4.27355e-15
4.38491e-15
4.49901e-15
4.61589e-15
4.73563e-15
4.85828e-15
4.98392e-15
5.11259e-15
5.24437e-15
5.37933e-15
5.51753e-15
5.65903e-15
5.80391e-15
5.95223e-15
6.10407e-15
6.2595e-15
6.41858e-15
6.58139e-15
6.748e-15
6.91848e-15
7.0929e-15
7.27135e-15
7.45389e-15
7.64059e-15
7.83153e-15
8.02678e-15
8.22641e-15
8.4305e-15
8.63912e-15
8.85232e-15
9.0702e-15
9.2928e-15
9.5202e-15
9.75245e-15
9.98963e-15
1.02318e-14
1.0479e-14
1.07312e-14
1.09886e-14
1.12512e-14
1.1519e-14
1.1792e-14
1.20703e-14
1.23538e-14
1.26426e-14
1.29368e-14
1.32362e-14
1.35408e-14
1.38507e-14
1.41657e-14
1.44858e-14
1.4811e-14
1.51411e-14
1.5476e-14
1.58156e-14
1.61598e-14
1.65082e-14
1.68608e-14
1.72172e-14
1.75773e-14
1.79406e-14
1.83068e-14
1.86756e-14
1.90464e-14
1.94188e-14
1.97922e-14
2.0166e-14
2.05395e-14
2.09119e-14
2.12825e-14
2.16503e-14
2.20142e-14
2.23732e-14
2.27261e-14
2.30714e-14
2.34076e-14
2.37333e-14
2.40466e-14
2.43455e-14
2.46279e-14
2.48915e-14
2.51338e-14
2.5352e-14
2.55431e-14
2.57038e-14
2.58306e-14
2.59195e-14
2.59663e-14
1.60722e-21
5.15194e-21
9.04476e-21
1.33085e-20
1.79667e-20
2.30411e-20
2.8553e-20
3.45233e-20
4.09738e-20
4.79273e-20
5.54075e-20
6.3439e-20
7.20476e-20
8.12597e-20
9.11028e-20
1.01605e-19
1.12795e-19
1.24703e-19
1.37358e-19
1.50793e-19
1.65039e-19
1.80129e-19
1.96096e-19
2.12975e-19
2.30801e-19
2.49611e-19
2.6944e-19
2.90328e-19
3.12313e-19
3.35434e-19
3.59733e-19
3.85251e-19
4.12031e-19
4.40117e-19
4.69554e-19
5.00388e-19
5.32665e-19
5.66435e-19
6.01747e-19
6.38651e-19
6.772e-19
7.17447e-19
7.59447e-19
8.03255e-19
8.48929e-19
8.96528e-19
9.46113e-19
9.97745e-19
1.05149e-18
1.10741e-18
1.16557e-18
1.22605e-18
1.2889e-18
1.35421e-18
1.42206e-18
1.4925e-18
1.56563e-18
1.64153e-18
1.72027e-18
1.80195e-18
1.88664e-18
1.97444e-18
2.06544e-18
2.15974e-18
2.25743e-18
2.35861e-18
2.46339e-18
2.57187e-18
2.68416e-18
2.80036e-18
2.92061e-18
3.045e-18
3.17367e-18
3.30674e-18
3.44434e-18
3.58659e-18
3.73364e-18
3.88563e-18
4.04269e-18
4.20497e-18
4.37264e-18
4.54583e-18
4.72472e-18
4.90947e-18
5.10025e-18
5.29723e-18
5.50059e-18
5.71052e-18
5.92721e-18
6.15086e-18
6.38166e-18
6.61982e-18
6.86557e-18
7.1191e-18
7.38066e-18
7.65048e-18
7.92879e-18
8.21584e-18
8.51188e-18
8.81717e-18
9.13199e-18
9.4566e-18
9.7913e-18
1.01364e-17
1.04921e-17
1.08588e-17
1.12368e-17
1.16265e-17
1.20281e-17
1.2442e-17
1.28686e-17
1.33082e-17
1.37612e-17
1.42281e-17
1.47091e-17
1.52047e-17
1.57154e-17
1.62415e-17
1.67835e-17
1.73419e-17
1.79171e-17
1.85097e-17
1.91201e-17
1.97488e-17
2.03964e-17
2.10635e-17
2.17505e-17
2.2458e-17
2.31867e-17
2.39372e-17
2.471e-17
2.55059e-17
2.63254e-17
2.71693e-17
2.80383e-17
2.89331e-17
2.98545e-17
3.08031e-17
3.17798e-17
3.27854e-17
3.38207e-17
3.48866e-17
3.59839e-17
3.71136e-17
3.82766e-17
3.94738e-17
4.07062e-17
4.19748e-17
4.32807e-17
4.46249e-17
4.60085e-17
4.74326e-17
4.88985e-17
5.04072e-17
5.196e-17
5.35582e-17
5.52031e-17
5.68959e-17
5.86381e-17
6.04311e-17
6.22762e-17
6.4175e-17
6.61291e-17
6.81399e-17
7.02091e-17
7.23383e-17
7.45292e-17
7.67836e-17
7.91033e-17
8.14902e-17
8.3946e-17
8.64728e-17
8.90725e-17
9.17473e-17
9.44992e-17
9.73304e-17
1.00243e-16
1.0324e-16
1.06322e-16
1.09494e-16
1.12756e-16
1.16112e-16
1.19564e-16
1.23116e-16
1.26769e-16
1.30526e-16
1.34391e-16
1.38366e-16
1.42455e-16
1.46661e-16
1.50986e-16
1.55435e-16
1.60011e-16
1.64717e-16
1.69556e-16
1.74533e-16
1.79652e-16
1.84915e-16
1.90328e-16
1.95894e-16
2.01618e-16
2.07504e-16
2.13556e-16
2.19779e-16
2.26178e-16
2.32757e-16
2.39522e-16
2.46477e-16
2.53627e-16
2.60979e-16
2.68538e-16
2.76308e-16
2.84296e-16
2.92509e-16
3.00951e-16
3.09629e-16
3.18551e-16
3.27721e-16
3.37147e-16
3.46836e-16
3.56795e-16
3.67031e-16
3.77552e-16
3.88365e-16
3.99478e-16
4.109e-16
4.22638e-16
4.34701e-16
4.47098e-16
4.59837e-16
4.72928e-16
4.8638e-16
5.00203e-16
5.14407e-16
5.29001e-16
5.43997e-16
5.59404e-16
5.75233e-16
5.91497e-16
6.08205e-16
6.25371e-16
6.43005e-16
6.61121e-16
6.7973e-16
6.98846e-16
7.18483e-16
7.38653e-16
7.59371e-16
7.8065e-16
8.02506e-16
8.24954e-16
8.48008e-16
8.71685e-16
8.96e-16
9.20971e-16
9.46614e-16
9.72946e-16
9.99985e-16
1.02775e-15
1.05626e-15
1.08553e-15
1.11558e-15
1.14644e-15
1.17812e-15
1.21064e-15
1.24403e-15
1.2783e-15
1.31348e-15
1.3496e-15
1.38667e-15
1.42472e-15
1.46378e-15
1.50387e-15
1.54501e-15
1.58723e-15
1.63056e-15
1.67503e-15
1.72067e-15
1.76749e-15
1.81554e-15
1.86485e-15
1.91544e-15
1.96734e-15
2.02059e-15
2.07522e-15
2.13127e-15
2.18877e-15
2.24775e-15
2.30825e-15
2.37031e-15
2.43396e-15
2.49925e-15
2.5662e-15
2.63488e-15
2.7053e-15
2.77752e-15
2.85158e-15
2.92752e-15
3.00538e-15
3.08522e-15
3.16707e-15
3.25099e-15
3.33702e-15
3.42521e-15
3.51562e-15
3.60828e-15
3.70327e-15
3.80062e-15
3.90039e-15
4.00264e-15
4.10742e-15
4.21479e-15
4.32481e-15
4.43754e-15
4.55303e-15
4.67135e-15
4.79256e-15
4.91673e-15
5.04391e-15
5.17417e-15
5.30758e-15
5.44421e-15
5.58411e-15
5.72737e-15
5.87405e-15
6.02421e-15
6.17794e-15
6.3353e-15
6.49636e-15
6.6612e-15
6.82989e-15
7.0025e-15
7.17912e-15
7.3598e-15
7.54463e-15
7.73368e-15
7.92703e-15
8.12475e-15
8.32691e-15
8.53358e-15
8.74485e-15
8.96077e-15
9.18142e-15
9.40687e-15
9.63718e-15
9.87242e-15
1.01127e-14
1.03579e-14
1.06083e-14
1.08639e-14
1.11246e-14
1.13906e-14
1.16619e-14
1.19385e-14
1.22205e-14
1.25078e-14
1.28005e-14
1.30985e-14
1.3402e-14
1.37107e-14
1.40248e-14
1.43442e-14
1.46687e-14
1.49984e-14
1.53331e-14
1.56728e-14
1.60172e-14
1.63662e-14
1.67197e-14
1.70774e-14
1.74391e-14
1.78046e-14
1.81733e-14
1.85452e-14
1.89196e-14
1.92963e-14
1.96746e-14
2.00541e-14
2.04341e-14
2.08139e-14
2.11929e-14
2.157e-14
2.19445e-14
2.23152e-14
2.26812e-14
2.30411e-14
2.33935e-14
2.37371e-14
2.40701e-14
2.43908e-14
2.46972e-14
2.49872e-14
2.52583e-14
2.5508e-14
2.57334e-14
2.59314e-14
2.60985e-14
2.62308e-14
2.63241e-14
2.63735e-14
1.58467e-21
5.07814e-21
8.91067e-21
1.31037e-20
1.7682e-20
2.26699e-20
2.80918e-20
3.39715e-20
4.0333e-20
4.72007e-20
5.45992e-20
6.25539e-20
7.10906e-20
8.02357e-20
9.00165e-20
1.00461e-19
1.11597e-19
1.23455e-19
1.36065e-19
1.49458e-19
1.63666e-19
1.78721e-19
1.94657e-19
2.11509e-19
2.29313e-19
2.48103e-19
2.67919e-19
2.88798e-19
3.10778e-19
3.33901e-19
3.58207e-19
3.83739e-19
4.1054e-19
4.38654e-19
4.68126e-19
4.99003e-19
5.31333e-19
5.65164e-19
6.00546e-19
6.37531e-19
6.76172e-19
7.16522e-19
7.58636e-19
8.02571e-19
8.48385e-19
8.96138e-19
9.4589e-19
9.97705e-19
1.05165e-18
1.10778e-18
1.16617e-18
1.2269e-18
1.29002e-18
1.35562e-18
1.42377e-18
1.49454e-18
1.56802e-18
1.64429e-18
1.72342e-18
1.80551e-18
1.89065e-18
1.97892e-18
2.07041e-18
2.16523e-18
2.26347e-18
2.36523e-18