/*--------------------------------*- C++ -*----------------------------------*\
  =========                 |
  \\      /  F ield         | OpenFOAM: The Open Source CFD Toolbox
   \\    /   O peration     | Website:  https://openfoam.org
    \\  /    A nd           | Version:  dev
     \\/     M anipulation  |
\*---------------------------------------------------------------------------*/
FoamFile
{
    format      ascii;
    class       volScalarField;
    location    "0.08";
    object      beta;
}
// * * * * * * * * * * * * * * * * * * * * * * * * * * * * * * * * * * * * * //

dimensions      [0 0 0 0 0 0 0];

internalField   uniform 0;

boundaryField
{
    frontAndBack
    {
        type            empty;
    }
    inlet
    {
        type            calculated;
        value           uniform 0;
    }
    outlet
    {
        type            calculated;
        value           uniform 0;
    }
    substrate
    {
        type            calculated;
        value           nonuniform List<scalar> 
400
(
0.0049786
0.00518523
0.00534971
0.00550116
0.00564433
0.00578008
0.00590973
0.00603432
0.00615464
0.00627123
0.00638452
0.00649483
0.00660242
0.00670747
0.00681014
0.00691055
0.00700876
0.00710485
0.00719885
0.0072908
0.00738073
0.00746863
0.00755454
0.00763845
0.00772037
0.00780031
0.00787828
0.00795427
0.00802831
0.00810039
0.00817054
0.00823876
0.00830508
0.0083695
0.00843206
0.00849277
0.00855165
0.00860873
0.00866404
0.0087176
0.00876944
0.0088196
0.0088681
0.00891498
0.00896027
0.009004
0.0090462
0.00908692
0.00912619
0.00916403
0.0092005
0.00923561
0.00926942
0.00930195
0.00933323
0.00936332
0.00939223
0.00942
0.00944668
0.00947228
0.00949685
0.00952042
0.00954302
0.00956469
0.00958545
0.00960533
0.00962437
0.0096426
0.00966004
0.00967672
0.00969267
0.00970791
0.00972248
0.0097364
0.00974969
0.00976238
0.00977449
0.00978605
0.00979706
0.00980757
0.00981758
0.00982712
0.00983621
0.00984487
0.00985311
0.00986095
0.00986841
0.00987551
0.00988225
0.00988867
0.00989476
0.00990055
0.00990605
0.00991127
0.00991622
0.00992092
0.00992538
0.00992961
0.00993362
0.00993742
0.00994102
0.00994443
0.00994765
0.00995071
0.0099536
0.00995633
0.00995892
0.00996137
0.00996368
0.00996586
0.00996792
0.00996987
0.00997171
0.00997344
0.00997508
0.00997662
0.00997807
0.00997944
0.00998074
0.00998195
0.0099831
0.00998417
0.00998519
0.00998614
0.00998704
0.00998788
0.00998867
0.00998942
0.00999012
0.00999077
0.00999139
0.00999196
0.0099925
0.00999301
0.00999349
0.00999393
0.00999435
0.00999474
0.0099951
0.00999544
0.00999576
0.00999606
0.00999634
0.0099966
0.00999684
0.00999707
0.00999728
0.00999748
0.00999766
0.00999783
0.00999799
0.00999814
0.00999828
0.00999841
0.00999852
0.00999864
0.00999874
0.00999884
0.00999892
0.00999901
0.00999908
0.00999915
0.00999922
0.00999928
0.00999934
0.00999939
0.00999944
0.00999948
0.00999952
0.00999956
0.0099996
0.00999963
0.00999966
0.00999969
0.00999971
0.00999974
0.00999976
0.00999978
0.0099998
0.00999982
0.00999983
0.00999985
0.00999986
0.00999987
0.00999988
0.00999989
0.0099999
0.00999991
0.00999992
0.00999993
0.00999993
0.00999994
0.00999994
0.00999995
0.00999995
0.00999996
0.00999996
0.00999996
0.00999997
0.00999997
0.00999997
0.00999998
0.00999998
0.00999998
0.00999998
0.00999998
0.00999999
0.00999999
0.00999999
0.00999999
0.00999999
0.00999999
0.00999999
0.00999999
0.00999999
0.00999999
0.00999999
0.01
0.01
0.01
0.01
0.01
0.01
0.01
0.01
0.01
0.01
0.01
0.01
0.01
0.01
0.01
0.01
0.01
0.01
0.01
0.01
0.01
0.01
0.01
0.01
0.01
0.01
0.01
0.01
0.01
0.01
0.01
0.01
0.01
0.01
0.01
0.01
0.01
0.01
0.01
0.01
0.01
0.01
0.01
0.01
0.01
0.01
0.01
0.01
0.01
0.01
0.01
0.01
0.01
0.01
0.01
0.01
0.01
0.01
0.01
0.01
0.01
0.01
0.01
0.01
0.01
0.01
0.01
0.01
0.01
0.01
0.01
0.01
0.01
0.01
0.01
0.01
0.01
0.01
0.01
0.01
0.01
0.01
0.01
0.01
0.01
0.01
0.01
0.01
0.01
0.01
0.01
0.01
0.01
0.01
0.01
0.01
0.01
0.01
0.01
0.01
0.01
0.01
0.01
0.01
0.01
0.01
0.01
0.01
0.01
0.01
0.01
0.01
0.01
0.01
0.01
0.01
0.01
0.01
0.01
0.01
0.01
0.01
0.01
0.01
0.01
0.01
0.01
0.01
0.01
0.01
0.01
0.01
0.01
0.01
0.01
0.01
0.01
0.01
0.01
0.01
0.01
0.01
0.01
0.01
0.01
0.01
0.01
0.01
0.01
0.01
0.01
0.01
0.01
0.01
0.01
0.01
0.01
0.01
0.01
0.01
0.01
0.01
0.01
0.01
0.01
0.01
0.01
0.01
0.01
0.01
0.01
0.01
0.01
0.01
0.01
0.01
0.01
0.01
0.01
0.01
0.01
0.01
0.01
)
;
    }
    Wall
    {
        type            calculated;
        value           nonuniform List<scalar> 
400
(
0.00497859
0.00518523
0.0053497
0.00550116
0.00564432
0.00578007
0.00590971
0.0060343
0.00615461
0.0062712
0.00638448
0.00649479
0.00660237
0.00670742
0.00681009
0.00691049
0.0070087
0.00710478
0.00719878
0.00729073
0.00738065
0.00746856
0.00755447
0.00763837
0.0077203
0.00780023
0.0078782
0.00795419
0.00802823
0.00810031
0.00817046
0.00823868
0.008305
0.00836943
0.00843198
0.00849269
0.00855157
0.00860866
0.00866397
0.00871753
0.00876937
0.00881953
0.00886804
0.00891491
0.0089602
0.00900393
0.00904614
0.00908686
0.00912613
0.00916398
0.00920044
0.00923556
0.00926937
0.0093019
0.00933318
0.00936327
0.00939218
0.00941996
0.00944663
0.00947224
0.00949681
0.00952038
0.00954299
0.00956465
0.00958541
0.0096053
0.00962434
0.00964256
0.00966
0.00967669
0.00969264
0.00970789
0.00972246
0.00973638
0.00974967
0.00976236
0.00977447
0.00978602
0.00979704
0.00980755
0.00981756
0.00982711
0.00983619
0.00984485
0.00985309
0.00986093
0.00986839
0.00987549
0.00988224
0.00988865
0.00989475
0.00990054
0.00990604
0.00991126
0.00991621
0.00992091
0.00992537
0.0099296
0.00993361
0.00993741
0.00994101
0.00994442
0.00994765
0.0099507
0.00995359
0.00995633
0.00995891
0.00996136
0.00996367
0.00996585
0.00996792
0.00996986
0.0099717
0.00997344
0.00997507
0.00997662
0.00997807
0.00997944
0.00998073
0.00998195
0.00998309
0.00998417
0.00998519
0.00998614
0.00998704
0.00998788
0.00998867
0.00998941
0.00999011
0.00999077
0.00999138
0.00999196
0.0099925
0.00999301
0.00999348
0.00999393
0.00999435
0.00999474
0.0099951
0.00999544
0.00999576
0.00999606
0.00999634
0.0099966
0.00999684
0.00999707
0.00999728
0.00999748
0.00999766
0.00999783
0.00999799
0.00999814
0.00999828
0.00999841
0.00999852
0.00999864
0.00999874
0.00999883
0.00999892
0.00999901
0.00999908
0.00999915
0.00999922
0.00999928
0.00999934
0.00999939
0.00999944
0.00999948
0.00999952
0.00999956
0.0099996
0.00999963
0.00999966
0.00999969
0.00999971
0.00999974
0.00999976
0.00999978
0.0099998
0.00999982
0.00999983
0.00999985
0.00999986
0.00999987
0.00999988
0.00999989
0.0099999
0.00999991
0.00999992
0.00999993
0.00999993
0.00999994
0.00999994
0.00999995
0.00999995
0.00999996
0.00999996
0.00999996
0.00999997
0.00999997
0.00999997
0.00999998
0.00999998
0.00999998
0.00999998
0.00999998
0.00999999
0.00999999
0.00999999
0.00999999
0.00999999
0.00999999
0.00999999
0.00999999
0.00999999
0.00999999
0.00999999
0.01
0.01
0.01
0.01
0.01
0.01
0.01
0.01
0.01
0.01
0.01
0.01
0.01
0.01
0.01
0.01
0.01
0.01
0.01
0.01
0.01
0.01
0.01
0.01
0.01
0.01
0.01
0.01
0.01
0.01
0.01
0.01
0.01
0.01
0.01
0.01
0.01
0.01
0.01
0.01
0.01
0.01
0.01
0.01
0.01
0.01
0.01
0.01
0.01
0.01
0.01
0.01
0.01
0.01
0.01
0.01
0.01
0.01
0.01
0.01
0.01
0.01
0.01
0.01
0.01
0.01
0.01
0.01
0.01
0.01
0.01
0.01
0.01
0.01
0.01
0.01
0.01
0.01
0.01
0.01
0.01
0.01
0.01
0.01
0.01
0.01
0.01
0.01
0.01
0.01
0.01
0.01
0.01
0.01
0.01
0.01
0.01
0.01
0.01
0.01
0.01
0.01
0.01
0.01
0.01
0.01
0.01
0.01
0.01
0.01
0.01
0.01
0.01
0.01
0.01
0.01
0.01
0.01
0.01
0.01
0.01
0.01
0.01
0.01
0.01
0.01
0.01
0.01
0.01
0.01
0.01
0.01
0.01
0.01
0.01
0.01
0.01
0.01
0.01
0.01
0.01
0.01
0.01
0.01
0.01
0.01
0.01
0.01
0.01
0.01
0.01
0.01
0.01
0.01
0.01
0.01
0.01
0.01
0.01
0.01
0.01
0.01
0.01
0.01
0.01
0.01
0.01
0.01
0.01
0.01
0.01
0.01
0.01
0.01
0.01
0.01
0.01
0.01
0.01
0.01
0.01
0.01
0.01
)
;
    }
}


// ************************************************************************* //
