/*--------------------------------*- C++ -*----------------------------------*\
  =========                 |
  \\      /  F ield         | OpenFOAM: The Open Source CFD Toolbox
   \\    /   O peration     | Website:  https://openfoam.org
    \\  /    A nd           | Version:  dev
     \\/     M anipulation  |
\*---------------------------------------------------------------------------*/
FoamFile
{
    format      ascii;
    class       volScalarField;
    location    "0.08";
    object      Exp1;
}
// * * * * * * * * * * * * * * * * * * * * * * * * * * * * * * * * * * * * * //

dimensions      [0 0 0 0 0 0 0];

internalField   uniform 0;

boundaryField
{
    frontAndBack
    {
        type            empty;
    }
    inlet
    {
        type            calculated;
        value           uniform 0;
    }
    outlet
    {
        type            calculated;
        value           uniform 0;
    }
    substrate
    {
        type            calculated;
        value           nonuniform List<scalar> 
400
(
0.12883
0.123874
0.120281
0.117021
0.113953
0.111063
0.108315
0.105678
0.103132
0.100662
0.0982555
0.0959052
0.0936043
0.091348
0.0891325
0.086955
0.0848135
0.0827064
0.0806327
0.0785916
0.0765826
0.0746053
0.0726596
0.0707454
0.0688627
0.0670113
0.0651915
0.0634031
0.0616462
0.0599209
0.0582272
0.056565
0.0549344
0.0533353
0.0517677
0.0502314
0.0487265
0.0472527
0.04581
0.0443982
0.0430172
0.0416666
0.0403465
0.0390564
0.0377963
0.0365658
0.0353648
0.0341928
0.0330497
0.0319352
0.0308488
0.0297904
0.0287596
0.027756
0.0267793
0.0258291
0.0249051
0.0240068
0.0231339
0.0222861
0.0214627
0.0206636
0.0198882
0.0191362
0.0184071
0.0177004
0.0170158
0.0163528
0.0157109
0.0150897
0.0144889
0.0139078
0.0133461
0.0128033
0.012279
0.0117728
0.0112841
0.0108125
0.0103577
0.00991905
0.00949626
0.00908887
0.00869644
0.00831855
0.00795479
0.00760475
0.00726801
0.00694417
0.00663286
0.00633367
0.00604623
0.00577016
0.00550511
0.0052507
0.0050066
0.00477244
0.00454791
0.00433267
0.0041264
0.00392879
0.00373953
0.00355832
0.00338488
0.00321893
0.00306019
0.00290839
0.00276327
0.00262459
0.00249209
0.00236555
0.00224473
0.00212941
0.00201938
0.00191442
0.00181433
0.00171892
0.00162799
0.00154137
0.00145888
0.00138034
0.0013056
0.00123448
0.00116684
0.00110254
0.00104142
0.000983342
0.000928182
0.00087581
0.000826101
0.000778935
0.0007342
0.000691785
0.000651583
0.000613494
0.000577419
0.000543264
0.000510939
0.000480358
0.000451437
0.000424097
0.00039826
0.000373854
0.000350809
0.000329056
0.000308532
0.000289174
0.000270924
0.000253726
0.000237524
0.000222268
0.000207908
0.000194397
0.00018169
0.000169745
0.000158519
0.000147975
0.000138075
0.000128784
0.000120068
0.000111895
0.000104234
9.70562e-05
9.03345e-05
8.40425e-05
7.81552e-05
7.2649e-05
6.75016e-05
6.26917e-05
5.81991e-05
5.4005e-05
5.00911e-05
4.64404e-05
4.30368e-05
3.9865e-05
3.69106e-05
3.41598e-05
3.16e-05
2.92188e-05
2.7005e-05
2.49476e-05
2.30365e-05
2.12621e-05
1.96155e-05
1.80882e-05
1.66721e-05
1.53599e-05
1.41444e-05
1.30191e-05
1.19778e-05
1.10147e-05
1.01243e-05
9.30154e-06
8.54167e-06
7.8402e-06
7.19296e-06
6.59605e-06
6.04583e-06
5.53889e-06
5.07206e-06
4.64237e-06
4.24707e-06
3.88358e-06
3.54951e-06
3.24262e-06
2.96086e-06
2.70228e-06
2.4651e-06
2.24765e-06
2.0484e-06
1.86591e-06
1.69886e-06
1.54602e-06
1.40624e-06
1.27848e-06
1.16176e-06
1.05519e-06
9.57923e-07
8.69199e-07
7.88307e-07
7.14593e-07
6.47455e-07
5.86336e-07
5.30727e-07
4.80155e-07
4.34188e-07
3.92428e-07
3.54509e-07
3.20097e-07
2.88881e-07
2.60581e-07
2.34937e-07
2.11711e-07
1.90687e-07
1.71665e-07
1.54463e-07
1.38917e-07
1.24872e-07
1.12192e-07
1.00749e-07
9.04276e-08
8.11232e-08
7.27398e-08
6.519e-08
5.83946e-08
5.22813e-08
4.67845e-08
4.18446e-08
3.74074e-08
3.3424e-08
2.98498e-08
2.66443e-08
2.37711e-08
2.1197e-08
1.88921e-08
1.68294e-08
1.49843e-08
1.33348e-08
1.18608e-08
1.05445e-08
9.36944e-09
8.32116e-09
7.38642e-09
6.55337e-09
5.81132e-09
5.15068e-09
4.56283e-09
4.04002e-09
3.57531e-09
3.16244e-09
2.79583e-09
2.47046e-09
2.18185e-09
1.92598e-09
1.69925e-09
1.49845e-09
1.32071e-09
1.16345e-09
1.0244e-09
9.01515e-10
7.92964e-10
6.97128e-10
6.12563e-10
5.37982e-10
4.72241e-10
4.14323e-10
3.63323e-10
3.18438e-10
2.78957e-10
2.44246e-10
2.13745e-10
1.86958e-10
1.63444e-10
1.42815e-10
1.24726e-10
1.08873e-10
9.49866e-11
8.2829e-11
7.21907e-11
6.28867e-11
5.47539e-11
4.76486e-11
4.14442e-11
3.60293e-11
3.1306e-11
2.7188e-11
2.35997e-11
2.04746e-11
1.77542e-11
1.53875e-11
1.33294e-11
1.15408e-11
9.98707e-12
8.63813e-12
7.46759e-12
6.45238e-12
5.57236e-12
4.80991e-12
4.14968e-12
3.57825e-12
3.08395e-12
2.65658e-12
2.28727e-12
1.9683e-12
1.69295e-12
1.45538e-12
1.25052e-12
1.07395e-12
9.21838e-13
7.90872e-13
6.78169e-13
5.81232e-13
4.97898e-13
4.26297e-13
3.64807e-13
3.12029e-13
2.66752e-13
2.27929e-13
1.94658e-13
1.66159e-13
1.41761e-13
1.20885e-13
1.03031e-13
8.7769e-14
7.47303e-14
6.35966e-14
5.40943e-14
4.59886e-14
3.90778e-14
3.31887e-14
2.8173e-14
2.39032e-14
2.02704e-14
1.7181e-14
1.45551e-14
1.23244e-14
1.04303e-14
8.82288e-15
7.45943e-15
6.30352e-15
5.32406e-15
4.49453e-15
3.79235e-15
3.19827e-15
2.6959e-15
2.2713e-15
1.91262e-15
1.60978e-15
1.35421e-15
1.13865e-15
9.56921e-16
8.03795e-16
6.74836e-16
5.66284e-16
4.74957e-16
3.98161e-16
3.33616e-16
2.79396e-16
2.33871e-16
1.95668e-16
1.63626e-16
1.36764e-16
1.14257e-16
9.54094e-17
7.96349e-17
6.64404e-17
5.5411e-17
4.61984e-17
3.851e-17
3.21006e-17
2.67655e-17
2.23334e-17
1.86625e-17
1.56354e-17
1.31563e-17
1.11477e-17
9.54866e-18
8.31275e-18
7.40688e-18
6.81006e-18
6.5122e-18
)
;
    }
    Wall
    {
        type            calculated;
        value           nonuniform List<scalar> 
400
(
0.12883
0.123874
0.120281
0.117021
0.113954
0.111063
0.108315
0.105678
0.103132
0.100662
0.0982555
0.0959053
0.0936045
0.0913483
0.0891328
0.0869554
0.0848139
0.0827069
0.0806333
0.0785922
0.0765832
0.074606
0.0726604
0.0707462
0.0688635
0.0670122
0.0651924
0.063404
0.0616471
0.0599219
0.0582281
0.056566
0.0549354
0.0533363
0.0517687
0.0502325
0.0487275
0.0472538
0.0458111
0.0443992
0.0430182
0.0416676
0.0403475
0.0390574
0.0377973
0.0365668
0.0353657
0.0341938
0.0330507
0.0319361
0.0308498
0.0297914
0.0287605
0.0277569
0.0267802
0.02583
0.024906
0.0240077
0.0231348
0.0222869
0.0214636
0.0206644
0.019889
0.019137
0.0184078
0.0177012
0.0170165
0.0163535
0.0157116
0.0150905
0.0144896
0.0139085
0.0133468
0.012804
0.0122797
0.0117734
0.0112847
0.0108131
0.0103583
0.00991963
0.00949683
0.00908943
0.00869698
0.00831908
0.00795531
0.00760525
0.00726849
0.00694465
0.00663332
0.00633412
0.00604666
0.00577058
0.00550551
0.0052511
0.00500698
0.00477281
0.00454827
0.00433301
0.00412673
0.00392911
0.00373984
0.00355862
0.00338517
0.00321921
0.00306046
0.00290865
0.00276352
0.00262483
0.00249233
0.00236578
0.00224495
0.00212962
0.00201958
0.00191461
0.00181451
0.0017191
0.00162816
0.00154154
0.00145904
0.00138049
0.00130574
0.00123462
0.00116698
0.00110267
0.00104154
0.000983459
0.000928295
0.000875918
0.000826203
0.000779034
0.000734294
0.000691874
0.000651669
0.000613576
0.000577497
0.000543338
0.00051101
0.000480426
0.000451502
0.000424158
0.000398319
0.00037391
0.000350862
0.000329107
0.00030858
0.00028922
0.000270968
0.000253767
0.000237563
0.000222305
0.000207943
0.00019443
0.000181722
0.000169775
0.000158548
0.000148002
0.000138101
0.000128808
0.000120091
0.000111916
0.000104254
9.70753e-05
9.03526e-05
8.40595e-05
7.81712e-05
7.26641e-05
6.75158e-05
6.2705e-05
5.82117e-05
5.40168e-05
5.01022e-05
4.64509e-05
4.30467e-05
3.98742e-05
3.69192e-05
3.4168e-05
3.16076e-05
2.9226e-05
2.70116e-05
2.49538e-05
2.30423e-05
2.12676e-05
1.96207e-05
1.8093e-05
1.66766e-05
1.53641e-05
1.41483e-05
1.30228e-05
1.19812e-05
1.10178e-05
1.01272e-05
9.30427e-06
8.54421e-06
7.84256e-06
7.19515e-06
6.59809e-06
6.04772e-06
5.54065e-06
5.07369e-06
4.64388e-06
4.24847e-06
3.88488e-06
3.55071e-06
3.24373e-06
2.96188e-06
2.70322e-06
2.46597e-06
2.24846e-06
2.04915e-06
1.8666e-06
1.69949e-06
1.5466e-06
1.40678e-06
1.27898e-06
1.16222e-06
1.05561e-06
9.58308e-07
8.69553e-07
7.88632e-07
7.14891e-07
6.47728e-07
5.86587e-07
5.30956e-07
4.80365e-07
4.3438e-07
3.92604e-07
3.5467e-07
3.20244e-07
2.89016e-07
2.60704e-07
2.35048e-07
2.11813e-07
1.90779e-07
1.71749e-07
1.5454e-07
1.38987e-07
1.24936e-07
1.1225e-07
1.00801e-07
9.04753e-08
8.11665e-08
7.2779e-08
6.52256e-08
5.84268e-08
5.23105e-08
4.68109e-08
4.18685e-08
3.74291e-08
3.34436e-08
2.98674e-08
2.66602e-08
2.37854e-08
2.121e-08
1.89038e-08
1.68399e-08
1.49938e-08
1.33433e-08
1.18685e-08
1.05513e-08
9.37562e-09
8.32671e-09
7.3914e-09
6.55783e-09
5.81532e-09
5.15427e-09
4.56604e-09
4.0429e-09
3.57788e-09
3.16473e-09
2.79788e-09
2.47229e-09
2.18349e-09
1.92744e-09
1.70055e-09
1.49961e-09
1.32174e-09
1.16437e-09
1.02522e-09
9.02242e-10
7.9361e-10
6.97702e-10
6.13072e-10
5.38434e-10
4.72642e-10
4.14678e-10
3.63637e-10
3.18717e-10
2.79203e-10
2.44464e-10
2.13937e-10
1.87128e-10
1.63595e-10
1.42948e-10
1.24843e-10
1.08976e-10
9.50775e-11
8.2909e-11
7.22611e-11
6.29486e-11
5.48084e-11
4.76965e-11
4.14862e-11
3.60663e-11
3.13384e-11
2.72164e-11
2.36246e-11
2.04964e-11
1.77733e-11
1.54042e-11
1.3344e-11
1.15536e-11
9.99823e-12
8.64787e-12
7.47609e-12
6.4598e-12
5.57882e-12
4.81554e-12
4.15458e-12
3.58252e-12
3.08766e-12
2.6598e-12
2.29007e-12
1.97073e-12
1.69507e-12
1.45722e-12
1.25211e-12
1.07533e-12
9.23032e-13
7.91906e-13
6.79064e-13
5.82006e-13
4.98568e-13
4.26875e-13
3.65307e-13
3.1246e-13
2.67123e-13
2.28249e-13
1.94934e-13
1.66397e-13
1.41966e-13
1.21061e-13
1.03182e-13
8.7899e-14
7.4842e-14
6.36925e-14
5.41766e-14
4.60591e-14
3.91382e-14
3.32405e-14
2.82173e-14
2.39412e-14
2.03028e-14
1.72087e-14
1.45788e-14
1.23446e-14
1.04476e-14
8.83762e-15
7.472e-15
6.31423e-15
5.33318e-15
4.5023e-15
3.79896e-15
3.20389e-15
2.70068e-15
2.27536e-15
1.91607e-15
1.6127e-15
1.35669e-15
1.14075e-15
9.58702e-16
8.05304e-16
6.76113e-16
5.67365e-16
4.75871e-16
3.98933e-16
3.34268e-16
2.79946e-16
2.34336e-16
1.9606e-16
1.63956e-16
1.37042e-16
1.14491e-16
9.56066e-17
7.98008e-17
6.65799e-17
5.55283e-17
4.62969e-17
3.85927e-17
3.21702e-17
2.68239e-17
2.23825e-17
1.87038e-17
1.56703e-17
1.31858e-17
1.11729e-17
9.57034e-18
8.33169e-18
7.42345e-18
6.82414e-18
6.52499e-18
)
;
    }
}


// ************************************************************************* //
