/*--------------------------------*- C++ -*----------------------------------*\
  =========                 |
  \\      /  F ield         | OpenFOAM: The Open Source CFD Toolbox
   \\    /   O peration     | Website:  https://openfoam.org
    \\  /    A nd           | Version:  dev
     \\/     M anipulation  |
\*---------------------------------------------------------------------------*/
FoamFile
{
    format      ascii;
    class       volScalarField;
    location    "0.08";
    object      growth;
}
// * * * * * * * * * * * * * * * * * * * * * * * * * * * * * * * * * * * * * //

dimensions      [0 0 0 0 0 0 0];

internalField   uniform 0;

boundaryField
{
    frontAndBack
    {
        type            empty;
    }
    inlet
    {
        type            calculated;
        value           uniform 0;
    }
    outlet
    {
        type            calculated;
        value           uniform 0;
    }
    substrate
    {
        type            calculated;
        value           nonuniform List<scalar> 
400
(
0.50214
0.481477
0.465029
0.449884
0.435567
0.421992
0.409027
0.396568
0.384536
0.372877
0.361548
0.350517
0.339758
0.329253
0.318986
0.308945
0.299124
0.289515
0.280115
0.27092
0.261927
0.253137
0.244546
0.236155
0.227963
0.219969
0.212172
0.204573
0.197169
0.189961
0.182946
0.176124
0.169492
0.16305
0.156794
0.150723
0.144835
0.139127
0.133596
0.12824
0.123056
0.11804
0.11319
0.108502
0.103973
0.0996003
0.0953796
0.0913078
0.0873813
0.0835967
0.0799503
0.0764387
0.0730582
0.0698054
0.0666766
0.0636684
0.0607773
0.0579998
0.0553324
0.0527718
0.0503147
0.0479577
0.0456975
0.0435311
0.0414552
0.0394667
0.0375627
0.0357403
0.0339964
0.0323283
0.0307333
0.0292085
0.0277515
0.0263597
0.0250306
0.0237617
0.0225508
0.0213955
0.0202936
0.019243
0.0182417
0.0172875
0.0163786
0.0155131
0.0146892
0.013905
0.013159
0.0124494
0.0117747
0.0111334
0.010524
0.00994507
0.00939526
0.00887326
0.00837783
0.00790774
0.00746183
0.00703899
0.00663814
0.00625825
0.00589835
0.00555746
0.0052347
0.00492919
0.0046401
0.00436662
0.004108
0.0038635
0.00363242
0.00341409
0.00320788
0.00301317
0.00282938
0.00265595
0.00249235
0.00233807
0.00219263
0.00205557
0.00192644
0.00180483
0.00169033
0.00158257
0.00148118
0.00138582
0.00129616
0.00121189
0.0011327
0.00105833
0.000988496
0.000922949
0.000861447
0.00080376
0.00074967
0.000698972
0.00065147
0.000606978
0.00056532
0.000526331
0.000489851
0.000455733
0.000423836
0.000394025
0.000366175
0.000340166
0.000315886
0.000293229
0.000272093
0.000252386
0.000234016
0.0002169
0.000200959
0.000186117
0.000172304
0.000159455
0.000147506
0.000136398
0.000126078
0.000116492
0.000107592
9.93322e-05
9.167e-05
8.45648e-05
7.79788e-05
7.18766e-05
6.6225e-05
6.0993e-05
5.61512e-05
5.16726e-05
4.75317e-05
4.37045e-05
4.01688e-05
3.69037e-05
3.389e-05
3.11093e-05
2.85448e-05
2.61806e-05
2.40021e-05
2.19956e-05
2.01482e-05
1.84482e-05
1.68843e-05
1.54464e-05
1.41249e-05
1.29109e-05
1.17962e-05
1.0773e-05
9.83426e-06
8.97344e-06
8.1844e-06
7.46148e-06
6.79943e-06
6.19339e-06
5.63889e-06
5.13177e-06
4.66819e-06
4.2446e-06
3.85774e-06
3.50457e-06
3.18231e-06
2.88839e-06
2.62045e-06
2.37629e-06
2.15391e-06
1.95147e-06
1.76725e-06
1.5997e-06
1.44737e-06
1.30896e-06
1.18325e-06
1.06912e-06
9.65555e-07
8.71626e-07
7.86474e-07
7.09315e-07
6.39432e-07
5.76168e-07
5.18925e-07
4.67153e-07
4.20351e-07
3.78063e-07
3.39872e-07
3.05397e-07
2.74291e-07
2.46239e-07
2.20952e-07
1.9817e-07
1.77654e-07
1.59187e-07
1.42573e-07
1.27633e-07
1.14204e-07
1.02141e-07
9.13086e-08
8.15866e-08
7.28654e-08
6.50457e-08
5.80377e-08
5.17602e-08
4.61398e-08
4.11102e-08
3.66115e-08
3.25895e-08
2.89956e-08
2.57857e-08
2.29203e-08
2.03635e-08
1.80833e-08
1.60507e-08
1.42398e-08
1.26272e-08
1.11918e-08
9.91485e-09
8.77936e-09
7.77018e-09
6.8737e-09
6.07772e-09
5.37134e-09
4.74476e-09
4.18926e-09
3.69701e-09
3.26102e-09
2.87507e-09
2.53356e-09
2.23155e-09
1.96458e-09
1.72871e-09
1.52043e-09
1.33659e-09
1.17441e-09
1.03141e-09
9.05385e-10
7.9437e-10
6.96629e-10
6.10618e-10
5.34966e-10
4.68458e-10
4.1002e-10
3.58697e-10
3.13645e-10
2.74118e-10
2.39456e-10
2.09075e-10
1.82459e-10
1.59154e-10
1.38758e-10
1.20917e-10
1.05318e-10
9.16869e-11
7.9781e-11
6.93872e-11
6.0318e-11
5.24085e-11
4.5514e-11
3.95071e-11
3.42763e-11
2.97234e-11
2.57627e-11
2.23189e-11
1.93259e-11
1.67261e-11
1.4469e-11
1.25103e-11
1.08115e-11
9.33877e-12
8.06272e-12
6.95762e-12
6.00104e-12
5.17345e-12
4.4578e-12
3.83927e-12
3.30494e-12
2.84358e-12
2.44543e-12
2.102e-12
1.80591e-12
1.55077e-12
1.33102e-12
1.14185e-12
9.79088e-13
8.39115e-13
7.188e-13
6.15435e-13
5.26676e-13
4.50497e-13
3.85148e-13
3.29117e-13
2.811e-13
2.39971e-13
2.04759e-13
1.74629e-13
1.48859e-13
1.2683e-13
1.08008e-13
9.19346e-14
7.82147e-14
6.65098e-14
5.65288e-14
4.80222e-14
4.07757e-14
3.46058e-14
2.93552e-14
2.4889e-14
2.1092e-14
1.78656e-14
1.51253e-14
1.27991e-14
1.08253e-14
9.15147e-15
7.73267e-15
6.53064e-15
5.51278e-15
4.6513e-15
3.92252e-15
3.30632e-15
2.78557e-15
2.34569e-15
1.97431e-15
1.66092e-15
1.3966e-15
1.17377e-15
9.86013e-16
8.27888e-16
6.94783e-16
5.82795e-16
4.8862e-16
4.09465e-16
3.42966e-16
2.87127e-16
2.40263e-16
2.0095e-16
1.67989e-16
1.40366e-16
1.17228e-16
9.78573e-17
8.16477e-17
6.80903e-17
5.67567e-17
4.72867e-17
3.9378e-17
3.27764e-17
2.72686e-17
2.26757e-17
1.88478e-17
1.56591e-17
1.30045e-17
1.07959e-17
8.95962e-18
7.43417e-18
6.16827e-18
5.11921e-18
4.25153e-18
3.53589e-18
2.94816e-18
2.46864e-18
2.0815e-18
1.77428e-18
1.53747e-18
1.36428e-18
1.25036e-18
1.19357e-18
)
;
    }
    Wall
    {
        type            calculated;
        value           nonuniform List<scalar> 
400
(
0.502141
0.481477
0.46503
0.449884
0.435568
0.421993
0.409029
0.39657
0.384539
0.37288
0.361552
0.350521
0.339763
0.329258
0.318991
0.308951
0.29913
0.289522
0.280122
0.270927
0.261935
0.253144
0.244553
0.236163
0.22797
0.219977
0.21218
0.204581
0.197177
0.189969
0.182954
0.176132
0.1695
0.163057
0.156802
0.150731
0.144843
0.139134
0.133603
0.128247
0.123063
0.118047
0.113196
0.108509
0.10398
0.0996065
0.0953857
0.0913138
0.0873871
0.0836023
0.0799558
0.0764441
0.0730634
0.0698105
0.0666816
0.0636732
0.060782
0.0580043
0.0553368
0.0527761
0.0503188
0.0479616
0.0457014
0.0435348
0.0414588
0.0394702
0.0375661
0.0357435
0.0339996
0.0323314
0.0307362
0.0292114
0.0277543
0.0263624
0.0250331
0.0237642
0.0225531
0.0213977
0.0202958
0.0192451
0.0182437
0.0172895
0.0163805
0.0155149
0.0146909
0.0139067
0.0131606
0.0124509
0.0117762
0.0111348
0.0105253
0.00994633
0.00939646
0.00887441
0.00837892
0.00790878
0.00746283
0.00703994
0.00663905
0.00625912
0.00589917
0.00555825
0.00523546
0.00492991
0.00464078
0.00436727
0.00410861
0.00386408
0.00363297
0.00341462
0.00320838
0.00301365
0.00282983
0.00265638
0.00249276
0.00233846
0.002193
0.00205592
0.00192677
0.00180514
0.00169063
0.00158285
0.00148145
0.00138607
0.0012964
0.00121211
0.00113291
0.00105853
0.000988685
0.000923127
0.000861615
0.000803918
0.00074982
0.000699113
0.000651603
0.000607103
0.000565438
0.000526441
0.000489955
0.000455831
0.000423928
0.000394111
0.000366256
0.000340242
0.000315958
0.000293296
0.000272156
0.000252445
0.000234071
0.000216952
0.000201007
0.000186162
0.000172347
0.000159494
0.000147543
0.000136433
0.00012611
0.000116522
0.00010762
9.93587e-05
9.16946e-05
8.45878e-05
7.80002e-05
7.18966e-05
6.62436e-05
6.10103e-05
5.61674e-05
5.16876e-05
4.75456e-05
4.37174e-05
4.01808e-05
3.69149e-05
3.39003e-05
3.11189e-05
2.85537e-05
2.61889e-05
2.40098e-05
2.20027e-05
2.01548e-05
1.84543e-05
1.689e-05
1.54517e-05
1.41298e-05
1.29154e-05
1.18003e-05
1.07768e-05
9.83777e-06
8.97668e-06
8.18738e-06
7.46423e-06
6.80196e-06
6.19573e-06
5.64104e-06
5.13375e-06
4.67e-06
4.24627e-06
3.85927e-06
3.50598e-06
3.1836e-06
2.88958e-06
2.62154e-06
2.37729e-06
2.15483e-06
1.9523e-06
1.76801e-06
1.6004e-06
1.44802e-06
1.30955e-06
1.18378e-06
1.06961e-06
9.66001e-07
8.72033e-07
7.86845e-07
7.09653e-07
6.3974e-07
5.76449e-07
5.19181e-07
4.67385e-07
4.20563e-07
3.78256e-07
3.40047e-07
3.05556e-07
2.74435e-07
2.46369e-07
2.21071e-07
1.98277e-07
1.77751e-07
1.59275e-07
1.42652e-07
1.27705e-07
1.1427e-07
1.022e-07
9.13618e-08
8.16347e-08
7.29088e-08
6.50848e-08
5.8073e-08
5.1792e-08
4.61684e-08
4.1136e-08
3.66346e-08
3.26104e-08
2.90143e-08
2.58026e-08
2.29354e-08
2.03771e-08
1.80955e-08
1.60617e-08
1.42496e-08
1.2636e-08
1.11997e-08
9.92186e-09
8.78564e-09
7.77579e-09
6.87871e-09
6.0822e-09
5.37533e-09
4.74833e-09
4.19244e-09
3.69984e-09
3.26355e-09
2.87731e-09
2.53556e-09
2.23332e-09
1.96616e-09
1.73012e-09
1.52168e-09
1.3377e-09
1.1754e-09
1.03228e-09
9.06157e-10
7.95054e-10
6.97235e-10
6.11154e-10
5.3544e-10
4.68878e-10
4.1039e-10
3.59024e-10
3.13934e-10
2.74373e-10
2.39681e-10
2.09273e-10
1.82634e-10
1.59308e-10
1.38893e-10
1.21036e-10
1.05423e-10
9.17788e-11
7.98617e-11
6.9458e-11
6.03801e-11
5.2463e-11
4.55617e-11
3.9549e-11
3.43129e-11
2.97555e-11
2.57908e-11
2.23434e-11
1.93473e-11
1.67448e-11
1.44853e-11
1.25246e-11
1.08239e-11
9.3496e-12
8.07215e-12
6.96583e-12
6.00819e-12
5.17967e-12
4.46321e-12
3.84397e-12
3.30902e-12
2.84712e-12
2.4485e-12
2.10466e-12
1.80822e-12
1.55277e-12
1.33275e-12
1.14335e-12
9.80386e-13
8.40236e-13
7.19769e-13
6.16272e-13
5.27398e-13
4.5112e-13
3.85685e-13
3.2958e-13
2.81499e-13
2.40314e-13
2.05055e-13
1.74883e-13
1.49078e-13
1.27018e-13
1.0817e-13
9.20731e-14
7.83335e-14
6.66117e-14
5.66162e-14
4.8097e-14
4.08398e-14
3.46607e-14
2.94021e-14
2.49291e-14
2.11263e-14
1.78948e-14
1.51503e-14
1.28204e-14
1.08435e-14
9.16696e-15
7.74586e-15
6.54188e-15
5.52234e-15
4.65943e-15
3.92944e-15
3.3122e-15
2.79055e-15
2.34992e-15
1.9779e-15
1.66397e-15
1.39918e-15
1.17596e-15
9.87866e-16
8.29456e-16
6.96109e-16
5.83916e-16
4.89568e-16
4.10265e-16
3.43641e-16
2.87697e-16
2.40744e-16
2.01356e-16
1.6833e-16
1.40653e-16
1.1747e-16
9.80609e-17
8.18189e-17
6.82342e-17
5.68775e-17
4.73882e-17
3.94631e-17
3.28478e-17
2.73284e-17
2.27258e-17
1.88898e-17
1.56943e-17
1.3034e-17
1.08205e-17
8.9802e-18
7.45137e-18
6.18265e-18
5.13123e-18
4.26159e-18
3.54431e-18
2.95522e-18
2.47459e-18
2.08655e-18
1.77861e-18
1.54123e-18
1.36756e-18
1.25315e-18
1.19609e-18
)
;
    }
}


// ************************************************************************* //
