/*--------------------------------*- C++ -*----------------------------------*\
  =========                 |
  \\      /  F ield         | OpenFOAM: The Open Source CFD Toolbox
   \\    /   O peration     | Website:  https://openfoam.org
    \\  /    A nd           | Version:  dev
     \\/     M anipulation  |
\*---------------------------------------------------------------------------*/
FoamFile
{
    format      ascii;
    class       volScalarField;
    location    "0.08";
    object      N1;
}
// * * * * * * * * * * * * * * * * * * * * * * * * * * * * * * * * * * * * * //

dimensions      [0 0 0 0 0 0 0];

internalField   nonuniform List<scalar> 
8000
(
0.982026
0.944594
0.917466
0.892842
0.869659
0.847806
0.827018
0.807065
0.78779
0.769078
0.750845
0.733029
0.71558
0.698461
0.681646
0.665112
0.648845
0.632833
0.617069
0.601547
0.586263
0.571216
0.556403
0.541826
0.527483
0.513374
0.499501
0.485864
0.472463
0.459299
0.446372
0.433682
0.421229
0.409014
0.397037
0.385296
0.373791
0.362522
0.351488
0.340688
0.330121
0.319785
0.30968
0.299803
0.290153
0.280729
0.271528
0.262549
0.253789
0.245247
0.23692
0.228805
0.220901
0.213205
0.205714
0.198425
0.191336
0.184444
0.177746
0.171239
0.16492
0.158786
0.152834
0.147061
0.141463
0.136036
0.130779
0.125687
0.120758
0.115987
0.111371
0.106908
0.102593
0.0984228
0.0943946
0.0905047
0.0867496
0.0831261
0.0796307
0.0762601
0.0730109
0.0698799
0.0668637
0.0639593
0.0611633
0.0584726
0.0558842
0.0533949
0.0510017
0.0487018
0.046492
0.0443697
0.042332
0.0403761
0.0384993
0.036699
0.0349727
0.0333178
0.0317318
0.0302124
0.0287572
0.0273639
0.0260302
0.0247542
0.0235335
0.0223662
0.0212504
0.0201839
0.0191651
0.018192
0.0172629
0.0163761
0.01553
0.0147228
0.0139531
0.0132194
0.0125202
0.011854
0.0112196
0.0106157
0.0100408
0.00949395
0.00897379
0.00847924
0.00800919
0.00756257
0.00713837
0.0067356
0.0063533
0.00599058
0.00564654
0.00532034
0.00501116
0.00471823
0.00444079
0.00417812
0.00392952
0.00369433
0.00347191
0.00326164
0.00306294
0.00287524
0.002698
0.00253071
0.00237286
0.00222398
0.00208363
0.00195136
0.00182675
0.00170942
0.00159898
0.00149507
0.00139735
0.00130548
0.00121915
0.00113805
0.00106191
0.000990458
0.000923423
0.000860563
0.000801645
0.000746444
0.000694748
0.000646357
0.000601079
0.000558732
0.000519144
0.000482152
0.0004476
0.000415344
0.000385243
0.000357166
0.00033099
0.000306596
0.000283873
0.000262718
0.000243031
0.000224717
0.000207691
0.000191868
0.00017717
0.000163524
0.00015086
0.000139113
0.000128223
0.000118131
0.000108783
0.000100128
9.21196e-05
8.47123e-05
7.78644e-05
7.15368e-05
6.56927e-05
6.02978e-05
5.532e-05
5.07292e-05
4.64976e-05
4.25988e-05
3.90085e-05
3.57038e-05
3.26636e-05
2.9868e-05
2.72987e-05
2.49385e-05
2.27715e-05
2.07828e-05
1.89587e-05
1.72863e-05
1.57539e-05
1.43504e-05
1.30657e-05
1.18902e-05
1.08152e-05
9.8326e-06
8.93495e-06
8.1153e-06
7.36724e-06
6.68488e-06
6.06275e-06
5.49583e-06
4.97948e-06
4.50942e-06
4.08174e-06
3.6928e-06
3.33927e-06
3.0181e-06
2.72648e-06
2.46181e-06
2.22174e-06
2.00409e-06
1.80686e-06
1.62824e-06
1.46654e-06
1.32025e-06
1.18796e-06
1.06839e-06
9.60374e-07
8.62851e-07
7.74844e-07
6.95465e-07
6.23906e-07
5.5943e-07
5.01366e-07
4.49104e-07
4.02087e-07
3.59812e-07
3.2182e-07
2.87695e-07
2.57059e-07
2.2957e-07
2.04917e-07
1.8282e-07
1.63023e-07
1.45297e-07
1.29432e-07
1.15242e-07
1.02556e-07
9.12197e-08
8.10958e-08
7.2059e-08
6.39968e-08
5.68079e-08
5.04009e-08
4.4694e-08
3.96131e-08
3.5092e-08
3.10712e-08
2.74971e-08
2.43218e-08
2.15023e-08
1.89999e-08
1.67803e-08
1.48124e-08
1.30687e-08
1.15243e-08
1.01573e-08
8.94795e-09
7.87854e-09
6.93341e-09
6.09856e-09
5.36151e-09
4.71113e-09
4.13754e-09
3.63194e-09
3.18649e-09
2.79426e-09
2.44906e-09
2.14541e-09
1.87846e-09
1.64388e-09
1.43786e-09
1.25702e-09
1.09837e-09
9.59252e-10
8.37327e-10
7.30527e-10
6.37025e-10
5.55207e-10
4.83652e-10
4.21104e-10
3.66458e-10
3.18741e-10
2.77096e-10
2.4077e-10
2.09099e-10
1.81502e-10
1.57467e-10
1.36545e-10
1.18343e-10
1.02515e-10
8.87584e-11
7.6809e-11
6.64345e-11
5.74321e-11
4.96243e-11
4.28562e-11
3.69923e-11
3.19145e-11
2.75198e-11
2.37182e-11
2.04313e-11
1.7591e-11
1.51379e-11
1.30202e-11
1.11931e-11
9.61755e-12
8.25956e-12
7.08971e-12
6.08248e-12
5.21569e-12
4.47017e-12
3.82926e-12
3.27858e-12
2.80568e-12
2.39977e-12
2.05155e-12
1.75297e-12
1.49708e-12
1.27791e-12
1.09026e-12
9.29706e-13
7.92392e-13
6.75018e-13
5.7474e-13
4.89112e-13
4.16031e-13
3.53691e-13
3.00541e-13
2.5525e-13
2.16674e-13
1.83836e-13
1.55896e-13
1.32136e-13
1.11941e-13
9.47851e-14
8.02179e-14
6.78555e-14
5.73694e-14
4.84794e-14
4.09465e-14
3.45668e-14
2.91664e-14
2.45974e-14
2.07338e-14
1.74683e-14
1.47097e-14
1.23806e-14
1.0415e-14
8.75717e-15
7.35953e-15
6.18187e-15
5.19006e-15
4.35521e-15
3.65283e-15
3.0622e-15
2.56579e-15
2.14879e-15
1.79867e-15
1.50486e-15
1.25842e-15
1.05183e-15
8.78733e-16
7.33779e-16
6.1246e-16
5.10983e-16
4.26158e-16
3.55305e-16
2.96174e-16
2.46881e-16
2.05849e-16
1.71763e-16
1.43531e-16
1.2025e-16
1.01183e-16
8.57353e-17
7.34373e-17
6.39321e-17
5.69652e-17
5.23751e-17
5.00844e-17
0.984962
0.955728
0.931016
0.907755
0.885407
0.864007
0.84346
0.823632
0.80441
0.785703
0.76744
0.749564
0.73203
0.714807
0.697867
0.681194
0.664772
0.648593
0.63265
0.616938
0.601455
0.5862
0.571172
0.556371
0.541798
0.527455
0.513342
0.49946
0.48581
0.472394
0.459212
0.446265
0.433553
0.421077
0.408838
0.396834
0.385066
0.373535
0.362238
0.351176
0.340348
0.329753
0.31939
0.309257
0.299354
0.289678
0.280229
0.271004
0.262001
0.25322
0.244656
0.23631
0.228177
0.220255
0.212543
0.205038
0.197736
0.190635
0.183733
0.177026
0.170511
0.164186
0.158047
0.15209
0.146314
0.140715
0.135288
0.130032
0.124942
0.120015
0.115248
0.110637
0.106179
0.101871
0.0977082
0.0936878
0.0898065
0.0860606
0.0824468
0.0789616
0.0756016
0.0723635
0.0692439
0.0662396
0.0633472
0.0605635
0.0578853
0.0553095
0.052833
0.0504528
0.0481657
0.045969
0.0438597
0.041835
0.039892
0.0380282
0.0362408
0.0345272
0.0328849
0.0313115
0.0298044
0.0283614
0.0269802
0.0256585
0.0243941
0.023185
0.022029
0.0209243
0.0198687
0.0188606
0.017898
0.0169791
0.0161023
0.0152659
0.0144683
0.013708
0.0129833
0.012293
0.0116355
0.0110095
0.0104137
0.0098468
0.00930762
0.00879496
0.00830768
0.00784468
0.0074049
0.00698732
0.00659096
0.00621487
0.00585815
0.00551991
0.00519931
0.00489554
0.00460783
0.00433543
0.00407761
0.00383369
0.003603
0.00338491
0.00317881
0.00298411
0.00280026
0.00262672
0.00246297
0.00230852
0.00216291
0.00202568
0.00189639
0.00177465
0.00166006
0.00155224
0.00145083
0.00135549
0.0012659
0.00118174
0.00110272
0.00102855
0.000958976
0.00089373
0.000832572
0.000775271
0.000721606
0.00067137
0.000624363
0.000580397
0.000539295
0.000500886
0.000465011
0.000431516
0.000400259
0.000371102
0.000343918
0.000318583
0.000294984
0.000273012
0.000252563
0.000233541
0.000215854
0.000199417
0.000184148
0.000169972
0.000156815
0.00014461
0.000133295
0.000122808
0.000113095
0.000104102
9.57791e-05
8.80812e-05
8.09643e-05
7.43879e-05
6.83137e-05
6.27061e-05
5.75319e-05
5.27598e-05
4.83608e-05
4.43076e-05
4.0575e-05
3.71392e-05
3.39782e-05
3.10714e-05
2.83998e-05
2.59455e-05
2.3692e-05
2.16238e-05
1.97267e-05
1.79874e-05
1.63936e-05
1.49337e-05
1.35973e-05
1.23745e-05
1.12562e-05
1.0234e-05
9.30012e-06
8.44733e-06
7.669e-06
6.95899e-06
6.31163e-06
5.72168e-06
5.18434e-06
4.69515e-06
4.25004e-06
3.84523e-06
3.47726e-06
3.14296e-06
2.8394e-06
2.56388e-06
2.31396e-06
2.08737e-06
1.88203e-06
1.69605e-06
1.52768e-06
1.37535e-06
1.23759e-06
1.11308e-06
1.00059e-06
8.99024e-07
8.07363e-07
7.24686e-07
6.50149e-07
5.82988e-07
5.22502e-07
4.68057e-07
4.19075e-07
3.75031e-07
3.35447e-07
2.9989e-07
2.67968e-07
2.39323e-07
2.13633e-07
1.90604e-07
1.69972e-07
1.51497e-07
1.34962e-07
1.2017e-07
1.06946e-07
9.51294e-08
8.45754e-08
7.51543e-08
6.67488e-08
5.92534e-08
5.25731e-08
4.66223e-08
4.13241e-08
3.66094e-08
3.24162e-08
2.86887e-08
2.5377e-08
2.24361e-08
1.9826e-08
1.75106e-08
1.54578e-08
1.36387e-08
1.20276e-08
1.06014e-08
9.33954e-09
8.22371e-09
7.23751e-09
6.36633e-09
5.59717e-09
4.91843e-09
4.3198e-09
3.7921e-09
3.32716e-09
2.91775e-09
2.55741e-09
2.24043e-09
1.96174e-09
1.71684e-09
1.50175e-09
1.31294e-09
1.14728e-09
1.00201e-09
8.74693e-10
7.63162e-10
6.65514e-10
5.80064e-10
5.05328e-10
4.39997e-10
3.82917e-10
3.33072e-10
2.89568e-10
2.51618e-10
2.18531e-10
1.89697e-10
1.64585e-10
1.42724e-10
1.23703e-10
1.07163e-10
9.27876e-11
8.02994e-11
6.94567e-11
6.00475e-11
5.18865e-11
4.48119e-11
3.86822e-11
3.33741e-11
2.87797e-11
2.48051e-11
2.13686e-11
1.83989e-11
1.58338e-11
1.36194e-11
1.17088e-11
1.00611e-11
8.64086e-12
7.41736e-12
6.36386e-12
5.45723e-12
4.67739e-12
4.00696e-12
3.43089e-12
2.93615e-12
2.51148e-12
2.14715e-12
1.83474e-12
1.56699e-12
1.33764e-12
1.14128e-12
9.73254e-13
8.29546e-13
7.06701e-13
6.01743e-13
5.12116e-13
4.35618e-13
3.7036e-13
3.1472e-13
2.67304e-13
2.26917e-13
1.92535e-13
1.63281e-13
1.38402e-13
1.17255e-13
9.92886e-14
8.40332e-14
7.1086e-14
6.01035e-14
5.07922e-14
4.29019e-14
3.62191e-14
3.0562e-14
2.57756e-14
2.17279e-14
1.83066e-14
1.54164e-14
1.2976e-14
1.09164e-14
9.17914e-15
7.71451e-15
6.48034e-15
5.44089e-15
4.5659e-15
3.82971e-15
3.21063e-15
2.69028e-15
2.25315e-15
1.88611e-15
1.57809e-15
1.31972e-15
1.10311e-15
9.21618e-16
7.69622e-16
6.42403e-16
5.35986e-16
4.47025e-16
3.72713e-16
3.1069e-16
2.58981e-16
2.15932e-16
1.80164e-16
1.5053e-16
1.26086e-16
1.06055e-16
8.98141e-17
7.68696e-17
6.68476e-17
5.94828e-17
5.46115e-17
5.21685e-17
0.98865
0.964604
0.941896
0.920025
0.898793
0.878191
0.858192
0.838735
0.819759
0.801205
0.783024
0.765175
0.747626
0.730352
0.713333
0.696556
0.68001
0.663689
0.647589
0.631707
0.616043
0.600597
0.585369
0.57036
0.555573
0.541009
0.52667
0.512558
0.498674
0.485019
0.471596
0.458405
0.445448
0.432725
0.420237
0.407984
0.395967
0.384185
0.372639
0.361328
0.350252
0.33941
0.328801
0.318425
0.30828
0.298364
0.288678
0.279218
0.269984
0.260973
0.252184
0.243614
0.235262
0.227125
0.219201
0.211487
0.203981
0.196679
0.18958
0.182681
0.175978
0.169468
0.163149
0.157016
0.151068
0.145301
0.139711
0.134295
0.12905
0.123973
0.119059
0.114305
0.109709
0.105265
0.100972
0.0968247
0.0928204
0.0889554
0.0852262
0.0816293
0.0781612
0.0748186
0.071598
0.068496
0.0655093
0.0626345
0.0598685
0.057208
0.0546498
0.0521908
0.0498279
0.0475581
0.0453785
0.0432861
0.041278
0.0393516
0.0375041
0.0357327
0.0340349
0.0324082
0.03085
0.0293579
0.0279296
0.0265627
0.0252551
0.0240045
0.0228089
0.0216661
0.0205742
0.0195313
0.0185354
0.0175847
0.0166775
0.015812
0.0149867
0.0141998
0.0134498
0.0127353
0.0120548
0.0114068
0.0107901
0.0102032
0.00964503
0.00911426
0.00860974
0.00813033
0.00767494
0.00724251
0.00683204
0.00644254
0.00607307
0.00572273
0.00539064
0.00507598
0.00477792
0.00449571
0.00422859
0.00397585
0.00373682
0.00351082
0.00329724
0.00309547
0.00290492
0.00272504
0.00255531
0.00239521
0.00224426
0.00210199
0.00196795
0.00184172
0.0017229
0.00161109
0.00150593
0.00140705
0.00131413
0.00122684
0.00114487
0.00106794
0.000995756
0.000928064
0.000864609
0.000805152
0.000749466
0.000697333
0.000648549
0.000602918
0.000560256
0.000520387
0.000483145
0.000448373
0.000415921
0.000385648
0.000357421
0.000331114
0.000306606
0.000283786
0.000262547
0.000242789
0.000224417
0.000207341
0.000191479
0.000176749
0.000163078
0.000150397
0.000138637
0.000127739
0.000117643
0.000108296
9.96447e-05
9.16423e-05
8.42434e-05
7.74058e-05
7.109e-05
6.5259e-05
5.98782e-05
5.49153e-05
5.034e-05
4.61241e-05
4.22413e-05
3.86671e-05
3.53785e-05
3.23542e-05
2.95743e-05
2.70204e-05
2.46752e-05
2.25228e-05
2.05483e-05
1.87378e-05
1.70787e-05
1.55589e-05
1.41676e-05
1.28944e-05
1.173e-05
1.06655e-05
9.6929e-06
8.80473e-06
7.99403e-06
7.25445e-06
6.58007e-06
5.96546e-06
5.4056e-06
4.89589e-06
4.43206e-06
4.01021e-06
3.62671e-06
3.27828e-06
2.96186e-06
2.67466e-06
2.41411e-06
2.17786e-06
1.96377e-06
1.76984e-06
1.59426e-06
1.4354e-06
1.29172e-06
1.16184e-06
1.0445e-06
9.38547e-07
8.42919e-07
7.56655e-07
6.7888e-07
6.08795e-07
5.45672e-07
4.88849e-07
4.37723e-07
3.91748e-07
3.50425e-07
3.13304e-07
2.79974e-07
2.50064e-07
2.23237e-07
1.99188e-07
1.7764e-07
1.58343e-07
1.41071e-07
1.2562e-07
1.11804e-07
9.94578e-08
8.84302e-08
7.85855e-08
6.98014e-08
6.19678e-08
5.49856e-08
4.87653e-08
4.32268e-08
3.82979e-08
3.39138e-08
3.00163e-08
2.65533e-08
2.34779e-08
2.07481e-08
1.83265e-08
1.61792e-08
1.42763e-08
1.25908e-08
1.10986e-08
9.77832e-09
8.61071e-09
7.57866e-09
6.66692e-09
5.86188e-09
5.15143e-09
4.52478e-09
3.97233e-09
3.48556e-09
3.05689e-09
2.67956e-09
2.34762e-09
2.05575e-09
1.79925e-09
1.57395e-09
1.37617e-09
1.20262e-09
1.05043e-09
9.17023e-10
8.00155e-10
6.97825e-10
6.08272e-10
5.29942e-10
4.61463e-10
4.01629e-10
3.49374e-10
3.03764e-10
2.63973e-10
2.29278e-10
1.99042e-10
1.72705e-10
1.49777e-10
1.29826e-10
1.12476e-10
9.7395e-11
8.42931e-11
7.29166e-11
6.30434e-11
5.44794e-11
4.70548e-11
4.06213e-11
3.50497e-11
3.02269e-11
2.60545e-11
2.24466e-11
1.93285e-11
1.6635e-11
1.43097e-11
1.23031e-11
1.05726e-11
9.08084e-12
7.79562e-12
6.68891e-12
5.7364e-12
4.91704e-12
4.21257e-12
3.60721e-12
3.08728e-12
2.64095e-12
2.258e-12
1.92961e-12
1.64814e-12
1.40702e-12
1.20056e-12
1.02389e-12
8.72767e-13
7.43577e-13
6.33191e-13
5.38919e-13
4.58452e-13
3.89803e-13
3.31266e-13
2.81378e-13
2.38883e-13
2.02704e-13
1.71917e-13
1.45733e-13
1.23475e-13
1.04564e-13
8.85043e-14
7.48738e-14
6.33108e-14
5.35066e-14
4.5198e-14
3.81604e-14
3.22025e-14
2.71612e-14
2.28976e-14
1.92936e-14
1.62487e-14
1.36776e-14
1.15075e-14
9.67691e-15
8.13346e-15
6.83277e-15
5.73722e-15
4.81493e-15
4.03889e-15
3.38625e-15
2.83765e-15
2.37675e-15
1.98972e-15
1.6649e-15
1.39242e-15
1.16397e-15
9.72528e-16
8.12193e-16
6.77982e-16
5.65706e-16
4.71839e-16
3.9342e-16
3.2796e-16
2.73377e-16
2.27926e-16
1.90152e-16
1.58844e-16
1.33004e-16
1.11813e-16
9.46111e-17
8.08778e-17
7.02192e-17
6.23581e-17
5.71299e-17
5.44894e-17
0.990739
0.970476
0.950027
0.929782
0.909846
0.890245
0.870994
0.852085
0.833502
0.815221
0.79722
0.779478
0.761977
0.744705
0.72765
0.710806
0.694168
0.677734
0.661503
0.645475
0.629651
0.614035
0.598627
0.583431
0.568449
0.553684
0.539139
0.524815
0.510716
0.496842
0.483197
0.469782
0.456599
0.443648
0.43093
0.418447
0.406199
0.394186
0.38241
0.370868
0.359562
0.348492
0.337655
0.327053
0.316683
0.306545
0.296638
0.286961
0.277511
0.268287
0.259288
0.250511
0.241954
0.233616
0.225494
0.217586
0.209889
0.2024
0.195117
0.188037
0.181158
0.174475
0.167987
0.16169
0.155581
0.149656
0.143912
0.138347
0.132956
0.127736
0.122684
0.117796
0.113069
0.108499
0.104082
0.0998153
0.095695
0.0917174
0.0878792
0.0841767
0.0806064
0.0771649
0.0738486
0.0706541
0.067578
0.0646169
0.0617675
0.0590266
0.0563908
0.053857
0.051422
0.0490828
0.0468362
0.0446794
0.0426094
0.0406234
0.0387185
0.036892
0.0351413
0.0334637
0.0318567
0.0303177
0.0288444
0.0274345
0.0260855
0.0247953
0.0235616
0.0223825
0.0212557
0.0201794
0.0191516
0.0181704
0.017234
0.0163407
0.0154886
0.0146763
0.013902
0.0131642
0.0124615
0.0117924
0.0111555
0.0105494
0.00997292
0.00942469
0.00890353
0.00840829
0.00793783
0.00749106
0.00706695
0.00666448
0.00628268
0.00592063
0.00557742
0.00525219
0.00494411
0.00465238
0.00437624
0.00411495
0.00386781
0.00363414
0.00341328
0.00320462
0.00300756
0.00282152
0.00264596
0.00248035
0.00232419
0.00217701
0.00203833
0.00190772
0.00178476
0.00166906
0.00156022
0.00145789
0.0013617
0.00127134
0.00118649
0.00110684
0.0010321
0.000962011
0.000896301
0.000834726
0.000777052
0.000723054
0.000672521
0.00062525
0.000581052
0.000539744
0.000501155
0.000465122
0.00043149
0.000400115
0.000370858
0.000343587
0.000318181
0.000294523
0.000272502
0.000252014
0.000232962
0.000215253
0.000198801
0.000183523
0.000169341
0.000156185
0.000143985
0.000132677
0.000122201
0.0001125
0.000103521
9.52152e-05
8.75349e-05
8.04367e-05
7.38796e-05
6.78253e-05
6.2238e-05
5.70841e-05
5.23324e-05
4.79537e-05
4.39205e-05
4.02075e-05
3.67909e-05
3.36487e-05
3.07601e-05
2.81062e-05
2.56689e-05
2.34317e-05
2.13793e-05
1.94973e-05
1.77724e-05
1.61923e-05
1.47455e-05
1.34215e-05
1.22105e-05
1.11034e-05
1.00917e-05
9.16778e-06
8.32437e-06
7.55486e-06
6.85314e-06
6.21355e-06
5.6309e-06
5.10038e-06
4.61757e-06
4.17842e-06
3.77916e-06
3.41638e-06
3.08689e-06
2.78781e-06
2.51646e-06
2.27039e-06
2.04737e-06
1.84535e-06
1.66243e-06
1.4969e-06
1.34718e-06
1.21183e-06
1.08954e-06
9.79101e-07
8.79417e-07
7.89488e-07
7.084e-07
6.35323e-07
5.69499e-07
5.10239e-07
4.56916e-07
4.08961e-07
3.65855e-07
3.27128e-07
2.92353e-07
2.61144e-07
2.33149e-07
2.0805e-07
1.85559e-07
1.65417e-07
1.47386e-07
1.31255e-07
1.1683e-07
1.03938e-07
9.24216e-08
8.21398e-08
7.29649e-08
6.4782e-08
5.74878e-08
5.09889e-08
4.52019e-08
4.00513e-08
3.54697e-08
3.13962e-08
2.77764e-08
2.45615e-08
2.17077e-08
1.91757e-08
1.69305e-08
1.49405e-08
1.31778e-08
1.16171e-08
1.0236e-08
9.01456e-09
7.93482e-09
6.98085e-09
6.13845e-09
5.39496e-09
4.73911e-09
4.16087e-09
3.65132e-09
3.20254e-09
2.80749e-09
2.45992e-09
2.15428e-09
1.88566e-09
1.64969e-09
1.44251e-09
1.26071e-09
1.10126e-09
9.6149e-10
8.3903e-10
7.31794e-10
6.37939e-10
5.55838e-10
4.84056e-10
4.2133e-10
3.66545e-10
3.18722e-10
2.76996e-10
2.40611e-10
2.08899e-10
1.81274e-10
1.57222e-10
1.36292e-10
1.18088e-10
1.02264e-10
8.85149e-11
7.65754e-11
6.62128e-11
5.72233e-11
4.94292e-11
4.26749e-11
3.68249e-11
3.17607e-11
2.7379e-11
2.35898e-11
2.03147e-11
1.74854e-11
1.50425e-11
1.29344e-11
1.1116e-11
9.54844e-12
8.19777e-12
7.03459e-12
6.0334e-12
5.17207e-12
4.43147e-12
3.79499e-12
3.24828e-12
2.77892e-12
2.37618e-12
2.03078e-12
1.73471e-12
1.48105e-12
1.26385e-12
1.07795e-12
9.18936e-13
7.82982e-13
6.66805e-13
5.67579e-13
4.82876e-13
4.10606e-13
3.48976e-13
2.96448e-13
2.51699e-13
2.13597e-13
1.81172e-13
1.53592e-13
1.30145e-13
1.10222e-13
9.3302e-14
7.89396e-14
6.67546e-14
5.64221e-14
4.7665e-14
4.02469e-14
3.39662e-14
2.86513e-14
2.41559e-14
2.03557e-14
1.71447e-14
1.44331e-14
1.21442e-14
1.02132e-14
8.58498e-15
7.21272e-15
6.05679e-15
5.08358e-15
4.26461e-15
3.57581e-15
2.99676e-15
2.51024e-15
2.10166e-15
1.75871e-15
1.47101e-15
1.22977e-15
1.02759e-15
8.58251e-16
7.16487e-16
5.97879e-16
4.98707e-16
4.15845e-16
3.46667e-16
2.88972e-16
2.40919e-16
2.00968e-16
1.67843e-16
1.40486e-16
1.1803e-16
9.97787e-17
8.5181e-17
7.38223e-17
6.54144e-17
5.97932e-17
5.69341e-17
0.991932
0.974405
0.95609
0.937484
0.918852
0.900289
0.881848
0.863562
0.845447
0.82751
0.809752
0.792173
0.77477
0.757541
0.740488
0.72361
0.70691
0.69039
0.674054
0.657905
0.641947
0.626184
0.610621
0.59526
0.580107
0.565164
0.550435
0.535924
0.521633
0.507565
0.493722
0.480106
0.46672
0.453565
0.440642
0.427953
0.415498
0.403279
0.391295
0.379546
0.368034
0.356758
0.345717
0.334911
0.32434
0.314002
0.303896
0.294022
0.284378
0.274962
0.265773
0.256809
0.248068
0.239548
0.231247
0.223163
0.215293
0.207634
0.200185
0.192942
0.185902
0.179063
0.172422
0.165975
0.159719
0.153651
0.147768
0.142067
0.136543
0.131194
0.126016
0.121006
0.116159
0.111473
0.106944
0.102568
0.0983418
0.0942615
0.0903236
0.0865245
0.0828607
0.0793287
0.0759248
0.0726456
0.0694876
0.0664474
0.0635216
0.0607069
0.0579999
0.0553974
0.0528963
0.0504932
0.0481852
0.0459692
0.0438422
0.0418014
0.0398437
0.0379665
0.0361671
0.0344426
0.0327906
0.0312084
0.0296937
0.0282439
0.0268568
0.02553
0.0242613
0.0230485
0.0218896
0.0207825
0.0197251
0.0187157
0.0177523
0.0168331
0.0159564
0.0151204
0.0143236
0.0135643
0.0128411
0.0121524
0.0114967
0.0108728
0.0102793
0.00971482
0.00917821
0.00866825
0.00818378
0.00772368
0.00728687
0.00687233
0.00647906
0.00610609
0.00575252
0.00541744
0.00510002
0.00479942
0.00451486
0.00424559
0.00399088
0.00375003
0.00352238
0.00330728
0.00310412
0.00291232
0.0027313
0.00256054
0.00239951
0.00224771
0.00210468
0.00196997
0.00184314
0.00172377
0.00161149
0.0015059
0.00140666
0.00131341
0.00122584
0.00114364
0.0010665
0.000994146
0.000926312
0.000862742
0.000803195
0.000747438
0.000695255
0.000646437
0.000600788
0.000558121
0.000518259
0.000481034
0.000446288
0.00041387
0.000383637
0.000355456
0.000329199
0.000304746
0.000281983
0.000260804
0.000241107
0.000222798
0.000205785
0.000189986
0.00017532
0.000161712
0.000149093
0.000137395
0.000126557
0.00011652
0.00010723
9.86344e-05
9.0686e-05
8.33393e-05
7.65521e-05
7.02848e-05
6.45004e-05
5.91642e-05
5.4244e-05
4.97095e-05
4.55326e-05
4.16869e-05
3.81479e-05
3.48928e-05
3.19002e-05
2.91504e-05
2.66249e-05
2.43065e-05
2.21794e-05
2.02287e-05
1.84407e-05
1.68027e-05
1.53027e-05
1.39299e-05
1.26741e-05
1.1526e-05
1.04767e-05
9.51839e-06
8.64349e-06
7.84518e-06
7.11712e-06
6.45347e-06
5.84884e-06
5.29826e-06
4.79715e-06
4.3413e-06
3.92684e-06
3.55019e-06
3.20809e-06
2.89752e-06
2.61573e-06
2.36017e-06
2.12852e-06
1.91866e-06
1.72863e-06
1.55665e-06
1.40108e-06
1.26043e-06
1.13334e-06
1.01855e-06
9.14934e-07
8.21447e-07
7.37144e-07
6.61162e-07
5.92715e-07
5.31087e-07
4.75629e-07
4.25748e-07
3.80908e-07
3.40618e-07
3.04437e-07
2.71963e-07
2.4283e-07
2.16709e-07
1.933e-07
1.72333e-07
1.53563e-07
1.36768e-07
1.21748e-07
1.08323e-07
9.63299e-08
8.56212e-08
7.60644e-08
6.75401e-08
5.99408e-08
5.31696e-08
4.71394e-08
4.17719e-08
3.69968e-08
3.2751e-08
2.89777e-08
2.56261e-08
2.26507e-08
2.00106e-08
1.76692e-08
1.55938e-08
1.37553e-08
1.21273e-08
1.06866e-08
9.41222e-09
8.28561e-09
7.29014e-09
6.41101e-09
5.63503e-09
4.95045e-09
4.34682e-09
3.81486e-09
3.34629e-09
2.93378e-09
2.57081e-09
2.2516e-09
1.97102e-09
1.72453e-09
1.50809e-09
1.31815e-09
1.15154e-09
1.00548e-09
8.775e-10
7.65418e-10
6.67312e-10
5.81484e-10
5.06438e-10
4.40852e-10
3.83564e-10
3.33551e-10
2.89911e-10
2.51853e-10
2.18679e-10
1.89779e-10
1.64613e-10
1.42713e-10
1.23663e-10
1.07101e-10
9.27104e-11
8.02124e-11
6.93639e-11
5.99522e-11
5.17911e-11
4.47183e-11
3.85917e-11
3.32876e-11
2.86979e-11
2.47284e-11
2.12972e-11
1.83328e-11
1.57729e-11
1.35637e-11
1.16579e-11
1.00149e-11
8.59901e-12
7.37958e-12
6.32987e-12
5.42672e-12
4.65008e-12
3.98256e-12
3.40914e-12
2.91681e-12
2.49431e-12
2.13194e-12
1.82129e-12
1.55511e-12
1.32717e-12
1.13206e-12
9.65154e-13
8.22437e-13
7.0047e-13
5.96289e-13
5.07348e-13
4.31455e-13
3.66729e-13
3.11557e-13
2.64552e-13
2.24525e-13
1.90459e-13
1.6148e-13
1.36841e-13
1.15903e-13
9.81202e-14
8.30237e-14
7.02147e-14
5.93521e-14
5.01448e-14
4.23446e-14
3.57398e-14
3.01501e-14
2.54219e-14
2.14244e-14
1.80465e-14
1.51936e-14
1.27853e-14
1.07533e-14
9.03982e-15
7.59555e-15
6.37884e-15
5.35437e-15
4.49219e-15
3.76696e-15
3.15725e-15
2.64491e-15
2.21461e-15
1.8534e-15
1.55034e-15
1.2962e-15
1.0832e-15
9.04773e-16
7.55387e-16
6.30388e-16
5.25861e-16
4.38512e-16
3.65578e-16
3.04739e-16
2.54055e-16
2.11905e-16
1.7694e-16
1.48045e-16
1.24308e-16
1.04991e-16
8.95147e-17
7.74429e-17
6.8477e-17
6.24551e-17
5.9373e-17
0.992784
0.977183
0.960596
0.943439
0.926001
0.908414
0.890762
0.873101
0.855472
0.837904
0.820418
0.80303
0.785753
0.768597
0.751572
0.734687
0.71795
0.70137
0.684954
0.668709
0.652641
0.636757
0.621062
0.605563
0.590264
0.57517
0.560285
0.545613
0.531158
0.516922
0.502909
0.489121
0.47556
0.462229
0.449129
0.436262
0.423628
0.41123
0.399067
0.38714
0.375449
0.363994
0.352776
0.341794
0.331048
0.320536
0.310258
0.300213
0.2904
0.280817
0.271463
0.262337
0.253435
0.244757
0.236301
0.228063
0.220043
0.212236
0.204642
0.197256
0.190077
0.183102
0.176326
0.169748
0.163364
0.157172
0.151167
0.145346
0.139706
0.134244
0.128956
0.123838
0.118887
0.1141
0.109472
0.105
0.100681
0.09651
0.0924846
0.0886007
0.0848547
0.081243
0.0777621
0.0744084
0.0711783
0.0680685
0.0650754
0.0621957
0.059426
0.056763
0.0542035
0.0517442
0.0493819
0.0471137
0.0449364
0.0428471
0.0408429
0.0389209
0.0370783
0.0353125
0.0336207
0.0320003
0.0304489
0.0289639
0.027543
0.0261838
0.0248841
0.0236415
0.0224541
0.0213196
0.0202361
0.0192017
0.0182143
0.0172722
0.0163736
0.0155167
0.0146999
0.0139215
0.0131799
0.0124738
0.0118015
0.0111617
0.0105531
0.0099742
0.00942384
0.00890078
0.00840383
0.00793185
0.00748374
0.00705844
0.00665494
0.00627225
0.00590943
0.00556557
0.0052398
0.00493128
0.00463921
0.00436281
0.00410133
0.00385408
0.00362035
0.0033995
0.00319089
0.00299393
0.00280803
0.00263265
0.00246725
0.00231133
0.0021644
0.00202601
0.0018957
0.00177306
0.00165768
0.00154917
0.00144718
0.00135135
0.00126134
0.00117684
0.00109754
0.00102316
0.000953412
0.000888048
0.000826814
0.000769475
0.000715806
0.000665595
0.000618639
0.000574748
0.000533738
0.000495439
0.000459687
0.000426328
0.000395216
0.000366212
0.000339187
0.000314016
0.000290583
0.000268779
0.000248499
0.000229646
0.000212127
0.000195856
0.000180751
0.000166735
0.000153736
0.000141685
0.000130519
0.000120178
0.000110604
0.000101747
9.3555e-05
8.59828e-05
7.89866e-05
7.25258e-05
6.65624e-05
6.10606e-05
5.59872e-05
5.13112e-05
4.70035e-05
4.30371e-05
3.93867e-05
3.60288e-05
3.29415e-05
3.01044e-05
2.74985e-05
2.51062e-05
2.2911e-05
2.08977e-05
1.90521e-05
1.73612e-05
1.58127e-05
1.43954e-05
1.30987e-05
1.19131e-05
1.08295e-05
9.83972e-06
8.93603e-06
8.11138e-06
7.35924e-06
6.67358e-06
6.04883e-06
5.47989e-06
4.96202e-06
4.49088e-06
4.06248e-06
3.67314e-06
3.31947e-06
2.99837e-06
2.707e-06
2.44273e-06
2.20317e-06
1.98612e-06
1.78956e-06
1.61166e-06
1.45071e-06
1.30519e-06
1.17369e-06
1.0549e-06
9.4767e-07
8.50911e-07
7.63649e-07
6.84994e-07
6.14132e-07
5.50325e-07
4.92901e-07
4.41247e-07
3.94808e-07
3.53079e-07
3.15601e-07
2.8196e-07
2.51778e-07
2.24714e-07
2.00458e-07
1.7873e-07
1.59276e-07
1.41869e-07
1.263e-07
1.12383e-07
9.99488e-08
8.88455e-08
7.89357e-08
7.00958e-08
6.22143e-08
5.5191e-08
4.89358e-08
4.33675e-08
3.84134e-08
3.40079e-08
3.00925e-08
2.66143e-08
2.35261e-08
2.07858e-08
1.83553e-08
1.62008e-08
1.42919e-08
1.26015e-08
1.11054e-08
9.78196e-09
8.61185e-09
7.57785e-09
6.6646e-09
5.85843e-09
5.14716e-09
4.51994e-09
3.96714e-09
3.48017e-09
3.05142e-09
2.67413e-09
2.34229e-09
2.05059e-09
1.79431e-09
1.56925e-09
1.37172e-09
1.19845e-09
1.04653e-09
9.13403e-10
7.96805e-10
6.94736e-10
6.05434e-10
5.27342e-10
4.59089e-10
3.99466e-10
3.4741e-10
3.01983e-10
2.62363e-10
2.27825e-10
1.97733e-10
1.71528e-10
1.4872e-10
1.28879e-10
1.11629e-10
9.6638e-11
8.36179e-11
7.23151e-11
6.25084e-11
5.4004e-11
4.6633e-11
4.02476e-11
3.47189e-11
2.99344e-11
2.57962e-11
2.22187e-11
1.91277e-11
1.64583e-11
1.41543e-11
1.21666e-11
1.04527e-11
8.97576e-12
7.70357e-12
6.60834e-12
5.66595e-12
4.85549e-12
4.15885e-12
3.56035e-12
3.04645e-12
2.6054e-12
2.22708e-12
1.90272e-12
1.62479e-12
1.38675e-12
1.18299e-12
1.00866e-12
8.59583e-13
7.3217e-13
6.23328e-13
5.30399e-13
4.51097e-13
3.83458e-13
3.25797e-13
2.76667e-13
2.34827e-13
1.99215e-13
1.68918e-13
1.43157e-13
1.21263e-13
1.02666e-13
8.68779e-14
7.34805e-14
6.21179e-14
5.2486e-14
4.43254e-14
3.74149e-14
3.15659e-14
2.66179e-14
2.24343e-14
1.88988e-14
1.59125e-14
1.33914e-14
1.12641e-14
9.46996e-15
7.95764e-15
6.6835e-15
5.61057e-15
4.70754e-15
3.94788e-15
3.30916e-15
2.7724e-15
2.32156e-15
1.94307e-15
1.62548e-15
1.35914e-15
1.13589e-15
9.48858e-16
7.92254e-16
6.61203e-16
5.51603e-16
4.60004e-16
3.83511e-16
3.19692e-16
2.66514e-16
2.22277e-16
1.85567e-16
1.55214e-16
1.3026e-16
1.09931e-16
9.36182e-17
8.08675e-17
7.137e-17
6.4966e-17
6.16712e-17
0.99341
0.979172
0.963897
0.947911
0.931478
0.914736
0.897783
0.880689
0.863512
0.846295
0.829075
0.81188
0.794737
0.777665
0.760683
0.743809
0.727055
0.710435
0.693961
0.677642
0.661489
0.64551
0.629711
0.6141
0.598684
0.583467
0.568454
0.553651
0.539061
0.524688
0.510535
0.496606
0.482902
0.469426
0.45618
0.443167
0.430386
0.41784
0.405529
0.393455
0.381617
0.370016
0.358652
0.347524
0.336633
0.325978
0.315558
0.305372
0.295419
0.285698
0.276208
0.266946
0.257912
0.249103
0.240518
0.232153
0.224008
0.216079
0.208364
0.20086
0.193565
0.186476
0.17959
0.172903
0.166413
0.160116
0.15401
0.14809
0.142353
0.136797
0.131417
0.12621
0.121172
0.1163
0.11159
0.107038
0.102641
0.0983952
0.0942968
0.0903421
0.0865275
0.0828493
0.0793041
0.0758881
0.0725978
0.0694298
0.0663805
0.0634464
0.0606243
0.0579106
0.0553022
0.0527958
0.0503882
0.0480762
0.0458568
0.0437269
0.0416837
0.0397241
0.0378455
0.0360449
0.0343197
0.0326673
0.0310851
0.0295706
0.0281213
0.0267349
0.0254091
0.0241416
0.0229302
0.0217727
0.0206673
0.0196118
0.0186043
0.0176429
0.0167258
0.0158513
0.0150177
0.0142232
0.0134663
0.0127455
0.0120592
0.011406
0.0107846
0.0101936
0.00963164
0.00909753
0.00859006
0.00810806
0.00765042
0.00721604
0.00680391
0.00641301
0.00604238
0.00569111
0.0053583
0.00504309
0.00474466
0.00446224
0.00419505
0.00394237
0.0037035
0.00347778
0.00326456
0.00306323
0.00287321
0.00269391
0.00252482
0.0023654
0.00221517
0.00207366
0.0019404
0.00181498
0.00169698
0.001586
0.00148168
0.00138365
0.00129157
0.00120512
0.00112398
0.00104787
0.000976509
0.00090962
0.000846953
0.000788269
0.000733337
0.00068194
0.000633873
0.000588939
0.000546954
0.00050774
0.000471131
0.000436971
0.000405109
0.000375404
0.000347724
0.000321941
0.000297937
0.0002756
0.000254823
0.000235506
0.000217555
0.000200882
0.000185402
0.000171037
0.000157713
0.000145361
0.000133914
0.000123312
0.000113497
0.000104415
9.60154e-05
8.82503e-05
8.10754e-05
7.4449e-05
6.83322e-05
6.26886e-05
5.7484e-05
5.26867e-05
4.8267e-05
4.41971e-05
4.04512e-05
3.70053e-05
3.38367e-05
3.09247e-05
2.82499e-05
2.5794e-05
2.35404e-05
2.14733e-05
1.95783e-05
1.7842e-05
1.62518e-05
1.47962e-05
1.34644e-05
1.22466e-05
1.11335e-05
1.01167e-05
9.18821e-06
8.3409e-06
7.56803e-06
6.86342e-06
6.22136e-06
5.63661e-06
5.1043e-06
4.62e-06
4.17959e-06
3.7793e-06
3.41567e-06
3.08549e-06
2.78586e-06
2.51408e-06
2.26769e-06
2.04443e-06
1.84224e-06
1.65922e-06
1.49364e-06
1.34392e-06
1.2086e-06
1.08636e-06
9.76005e-07
8.76418e-07
7.866e-07
7.05633e-07
6.32684e-07
5.66992e-07
5.07867e-07
4.54678e-07
4.06856e-07
3.63881e-07
3.25282e-07
2.90631e-07
2.5954e-07
2.31659e-07
2.06669e-07
1.84281e-07
1.64236e-07
1.46298e-07
1.30253e-07
1.15909e-07
1.03092e-07
9.16467e-08
8.14306e-08
7.23167e-08
6.41903e-08
5.69483e-08
5.04977e-08
4.47551e-08
3.96455e-08
3.51014e-08
3.10624e-08
2.74741e-08
2.42881e-08
2.14606e-08
1.89527e-08
1.67293e-08
1.47592e-08
1.30146e-08
1.14703e-08