/*--------------------------------*- C++ -*----------------------------------*\
  =========                 |
  \\      /  F ield         | OpenFOAM: The Open Source CFD Toolbox
   \\    /   O peration     | Website:  https://openfoam.org
    \\  /    A nd           | Version:  dev
     \\/     M anipulation  |
\*---------------------------------------------------------------------------*/
FoamFile
{
    format      ascii;
    class       volScalarField;
    location    "0.66";
    object      Exp1;
}
// * * * * * * * * * * * * * * * * * * * * * * * * * * * * * * * * * * * * * //

dimensions      [0 0 0 0 0 0 0];

internalField   uniform 0;

boundaryField
{
    frontAndBack
    {
        type            empty;
    }
    inlet
    {
        type            calculated;
        value           uniform 0;
    }
    outlet
    {
        type            calculated;
        value           uniform 0;
    }
    substrate
    {
        type            calculated;
        value           nonuniform List<scalar> 
400
(
9.2045e-17
2.93167e-16
5.14434e-16
7.54916e-16
1.01477e-15
1.29491e-15
1.5962e-15
1.91957e-15
2.26606e-15
2.63679e-15
3.03295e-15
3.4558e-15
3.90664e-15
4.38681e-15
4.89769e-15
5.44067e-15
6.01719e-15
6.62871e-15
7.27669e-15
7.96265e-15
8.6881e-15
9.4546e-15
1.02637e-14
1.11171e-14
1.20163e-14
1.29631e-14
1.39592e-14
1.50062e-14
1.6106e-14
1.72604e-14
1.84712e-14
1.97404e-14
2.10698e-14
2.24615e-14
2.39175e-14
2.54399e-14
2.70308e-14
2.86923e-14
3.04268e-14
3.22364e-14
3.41236e-14
3.60907e-14
3.81401e-14
4.02744e-14
4.24961e-14
4.48079e-14
4.72125e-14
4.97127e-14
5.23112e-14
5.5011e-14
5.78151e-14
6.07265e-14
6.37485e-14
6.6884e-14
7.01366e-14
7.35096e-14
7.70064e-14
8.06307e-14
8.4386e-14
8.82762e-14
9.2305e-14
9.64765e-14
1.00795e-13
1.05264e-13
1.09888e-13
1.14672e-13
1.1962e-13
1.24737e-13
1.30027e-13
1.35495e-13
1.41147e-13
1.46988e-13
1.53022e-13
1.59256e-13
1.65694e-13
1.72343e-13
1.79209e-13
1.86297e-13
1.93614e-13
2.01166e-13
2.0896e-13
2.17002e-13
2.253e-13
2.3386e-13
2.4269e-13
2.51797e-13
2.61189e-13
2.70874e-13
2.80861e-13
2.91156e-13
3.01769e-13
3.1271e-13
3.23985e-13
3.35606e-13
3.47582e-13
3.59921e-13
3.72635e-13
3.85734e-13
3.99228e-13
4.13128e-13
4.27445e-13
4.42191e-13
4.57378e-13
4.73017e-13
4.89121e-13
5.05702e-13
5.22774e-13
5.4035e-13
5.58444e-13
5.77069e-13
5.96241e-13
6.15974e-13
6.36283e-13
6.57184e-13
6.78693e-13
7.00827e-13
7.23601e-13
7.47035e-13
7.71144e-13
7.95948e-13
8.21464e-13
8.47713e-13
8.74714e-13
9.02486e-13
9.31051e-13
9.6043e-13
9.90644e-13
1.02171e-12
1.05367e-12
1.08652e-12
1.1203e-12
1.15504e-12
1.19075e-12
1.22746e-12
1.26521e-12
1.304e-12
1.34389e-12
1.38488e-12
1.42702e-12
1.47033e-12
1.51483e-12
1.56057e-12
1.60758e-12
1.65588e-12
1.70551e-12
1.75651e-12
1.80891e-12
1.86274e-12
1.91805e-12
1.97487e-12
2.03323e-12
2.09319e-12
2.15477e-12
2.21802e-12
2.28299e-12
2.34971e-12
2.41822e-12
2.48859e-12
2.56084e-12
2.63504e-12
2.71122e-12
2.78943e-12
2.86974e-12
2.95218e-12
3.03681e-12
3.12369e-12
3.21287e-12
3.30441e-12
3.39836e-12
3.49478e-12
3.59374e-12
3.6953e-12
3.79951e-12
3.90645e-12
4.01618e-12
4.12876e-12
4.24426e-12
4.36276e-12
4.48433e-12
4.60903e-12
4.73695e-12
4.86815e-12
5.00272e-12
5.14074e-12
5.28228e-12
5.42743e-12
5.57628e-12
5.7289e-12
5.88539e-12
6.04584e-12
6.21033e-12
6.37897e-12
6.55184e-12
6.72904e-12
6.91067e-12
7.09683e-12
7.28762e-12
7.48315e-12
7.68352e-12
7.88884e-12
8.09923e-12
8.31479e-12
8.53565e-12
8.7619e-12
8.99369e-12
9.23112e-12
9.47432e-12
9.72341e-12
9.97853e-12
1.02398e-11
1.05074e-11
1.07813e-11
1.10619e-11
1.13491e-11
1.16432e-11
1.19443e-11
1.22524e-11
1.25679e-11
1.28908e-11
1.32213e-11
1.35596e-11
1.39057e-11
1.42599e-11
1.46224e-11
1.49932e-11
1.53727e-11
1.57608e-11
1.61579e-11
1.65641e-11
1.69796e-11
1.74045e-11
1.78391e-11
1.82835e-11
1.8738e-11
1.92027e-11
1.96778e-11
2.01636e-11
2.06602e-11
2.11678e-11
2.16867e-11
2.22171e-11
2.27591e-11
2.33131e-11
2.38792e-11
2.44576e-11
2.50487e-11
2.56525e-11
2.62694e-11
2.68995e-11
2.75432e-11
2.82007e-11
2.88722e-11
2.95579e-11
3.02582e-11
3.09733e-11
3.17034e-11
3.24487e-11
3.32097e-11
3.39865e-11
3.47794e-11
3.55886e-11
3.64146e-11
3.72574e-11
3.81175e-11
3.89951e-11
3.98905e-11
4.0804e-11
4.17358e-11
4.26864e-11
4.36559e-11
4.46447e-11
4.56531e-11
4.66814e-11
4.773e-11
4.8799e-11
4.98889e-11
5.1e-11
5.21326e-11
5.3287e-11
5.44635e-11
5.56625e-11
5.68843e-11
5.81293e-11
5.93978e-11
6.069e-11
6.20064e-11
6.33474e-11
6.47132e-11
6.61042e-11
6.75207e-11
6.89631e-11
7.04318e-11
7.19271e-11
7.34494e-11
7.4999e-11
7.65763e-11
7.81816e-11
7.98153e-11
8.14778e-11
8.31695e-11
8.48906e-11
8.66416e-11
8.84228e-11
9.02346e-11
9.20774e-11
9.39515e-11
9.58573e-11
9.77952e-11
9.97655e-11
1.01769e-10
1.03805e-10
1.05875e-10
1.07978e-10
1.10116e-10
1.12289e-10
1.14496e-10
1.16739e-10
1.19017e-10
1.21332e-10
1.23682e-10
1.2607e-10
1.28495e-10
1.30957e-10
1.33456e-10
1.35994e-10
1.3857e-10
1.41185e-10
1.43839e-10
1.46532e-10
1.49264e-10
1.52037e-10
1.54849e-10
1.57702e-10
1.60596e-10
1.6353e-10
1.66506e-10
1.69523e-10
1.72582e-10
1.75682e-10
1.78824e-10
1.82008e-10
1.85234e-10
1.88503e-10
1.91813e-10
1.95166e-10
1.98562e-10
2.01999e-10
2.05479e-10
2.09002e-10
2.12566e-10
2.16172e-10
2.19819e-10
2.23508e-10
2.27238e-10
2.31008e-10
2.34818e-10
2.38668e-10
2.42556e-10
2.46482e-10
2.50445e-10
2.54444e-10
2.58479e-10
2.62546e-10
2.66646e-10
2.70777e-10
2.74936e-10
2.79123e-10
2.83333e-10
2.87567e-10
2.91819e-10
2.96089e-10
3.00371e-10
3.04663e-10
3.0896e-10
3.13259e-10
3.17553e-10
3.21838e-10
3.26108e-10
3.30355e-10
3.34574e-10
3.38755e-10
3.42889e-10
3.46968e-10
3.50981e-10
3.54916e-10
3.58759e-10
3.62498e-10
3.66117e-10
3.69599e-10
3.72925e-10
3.76077e-10
3.79031e-10
3.81766e-10
3.84255e-10
3.86473e-10
3.88391e-10
3.8998e-10
3.91211e-10
3.92055e-10
3.92486e-10
)
;
    }
    Wall
    {
        type            calculated;
        value           nonuniform List<scalar> 
400
(
9.20433e-17
2.93161e-16
5.14423e-16
7.54901e-16
1.01475e-15
1.29488e-15
1.59616e-15
1.91952e-15
2.266e-15
2.63671e-15
3.03286e-15
3.45569e-15
3.90651e-15
4.38666e-15
4.89751e-15
5.44047e-15
6.01696e-15
6.62845e-15
7.2764e-15
7.96232e-15
8.68774e-15
9.45421e-15
1.02633e-14
1.11166e-14
1.20158e-14
1.29626e-14
1.39586e-14
1.50056e-14
1.61053e-14
1.72597e-14
1.84705e-14
1.97396e-14
2.1069e-14
2.24607e-14
2.39166e-14
2.5439e-14
2.70298e-14
2.86913e-14
3.04257e-14
3.22353e-14
3.41224e-14
3.60894e-14
3.81388e-14
4.0273e-14
4.24947e-14
4.48064e-14
4.7211e-14
4.9711e-14
5.23095e-14
5.50092e-14
5.78132e-14
6.07246e-14
6.37464e-14
6.68819e-14
7.01344e-14
7.35073e-14
7.7004e-14
8.06281e-14
8.43834e-14
8.82734e-14
9.23022e-14
9.64736e-14
1.00792e-13
1.05261e-13
1.09885e-13
1.14669e-13
1.19616e-13
1.24733e-13
1.30023e-13
1.35491e-13
1.41143e-13
1.46983e-13
1.53018e-13
1.59251e-13
1.65689e-13
1.72338e-13
1.79204e-13
1.86292e-13
1.93608e-13
2.0116e-13
2.08954e-13
2.16996e-13
2.25293e-13
2.33853e-13
2.42683e-13
2.5179e-13
2.61182e-13
2.70867e-13
2.80853e-13
2.91148e-13
3.01761e-13
3.12701e-13
3.23977e-13
3.35597e-13
3.47572e-13
3.59912e-13
3.72625e-13
3.85724e-13
3.99217e-13
4.13117e-13
4.27434e-13
4.42179e-13
4.57365e-13
4.73004e-13
4.89107e-13
5.05688e-13
5.2276e-13
5.40335e-13
5.58429e-13
5.77054e-13
5.96225e-13
6.15958e-13
6.36266e-13
6.57167e-13
6.78675e-13
7.00808e-13
7.23582e-13
7.47015e-13
7.71124e-13
7.95927e-13
8.21443e-13
8.47691e-13
8.74691e-13
9.02463e-13
9.31027e-13
9.60405e-13
9.90618e-13
1.02169e-12
1.05364e-12
1.08649e-12
1.12027e-12
1.15501e-12
1.19072e-12
1.22743e-12
1.26517e-12
1.30397e-12
1.34385e-12
1.38485e-12
1.42698e-12
1.47029e-12
1.5148e-12
1.56054e-12
1.60754e-12
1.65584e-12
1.70547e-12
1.75647e-12
1.80887e-12
1.8627e-12
1.918e-12
1.97482e-12
2.03318e-12
2.09313e-12
2.15471e-12
2.21797e-12
2.28293e-12
2.34965e-12
2.41816e-12
2.48853e-12
2.56078e-12
2.63497e-12
2.71115e-12
2.78937e-12
2.86967e-12
2.95211e-12
3.03674e-12
3.12361e-12
3.21279e-12
3.30433e-12
3.39828e-12
3.4947e-12
3.59366e-12
3.69521e-12
3.79942e-12
3.90635e-12
4.01608e-12
4.12865e-12
4.24416e-12
4.36265e-12
4.48422e-12
4.60892e-12
4.73683e-12
4.86803e-12
5.0026e-12
5.14061e-12
5.28215e-12
5.4273e-12
5.57614e-12
5.72876e-12
5.88525e-12
6.04569e-12
6.21018e-12
6.37881e-12
6.55168e-12
6.72887e-12
6.9105e-12
7.09665e-12
7.28744e-12
7.48296e-12
7.68333e-12
7.88865e-12
8.09903e-12
8.31459e-12
8.53544e-12
8.76169e-12
8.99347e-12
9.23089e-12
9.47409e-12
9.72318e-12
9.97829e-12
1.02396e-11
1.05071e-11
1.07811e-11
1.10616e-11
1.13488e-11
1.16429e-11
1.1944e-11
1.22522e-11
1.25676e-11
1.28905e-11
1.3221e-11
1.35592e-11
1.39054e-11
1.42596e-11
1.4622e-11
1.49929e-11
1.53723e-11
1.57604e-11
1.61575e-11
1.65637e-11
1.69792e-11
1.74041e-11
1.78387e-11
1.82831e-11
1.87375e-11
1.92022e-11
1.96773e-11
2.01631e-11
2.06597e-11
2.11673e-11
2.16862e-11
2.22166e-11
2.27586e-11
2.33126e-11
2.38786e-11
2.44571e-11
2.50481e-11
2.56519e-11
2.62688e-11
2.68989e-11
2.75426e-11
2.82e-11
2.88715e-11
2.95573e-11
3.02575e-11
3.09725e-11
3.17026e-11
3.2448e-11
3.32089e-11
3.39857e-11
3.47786e-11
3.55878e-11
3.64137e-11
3.72566e-11
3.81166e-11
3.89942e-11
3.98896e-11
4.0803e-11
4.17349e-11
4.26854e-11
4.36549e-11
4.46437e-11
4.56521e-11
4.66804e-11
4.77289e-11
4.87979e-11
4.98878e-11
5.09988e-11
5.21314e-11
5.32858e-11
5.44623e-11
5.56612e-11
5.6883e-11
5.8128e-11
5.93964e-11
6.06886e-11
6.2005e-11
6.33459e-11
6.47117e-11
6.61026e-11
6.75191e-11
6.89616e-11
7.04302e-11
7.19255e-11
7.34477e-11
7.49973e-11
7.65745e-11
7.81798e-11
7.98135e-11
8.1476e-11
8.31676e-11
8.48887e-11
8.66396e-11
8.84208e-11
9.02326e-11
9.20753e-11
9.39494e-11
9.58552e-11
9.7793e-11
9.97632e-11
1.01766e-10
1.03802e-10
1.05872e-10
1.07976e-10
1.10114e-10
1.12286e-10
1.14493e-10
1.16736e-10
1.19015e-10
1.21329e-10
1.2368e-10
1.26067e-10
1.28492e-10
1.30954e-10
1.33453e-10
1.35991e-10
1.38567e-10
1.41182e-10
1.43835e-10
1.46528e-10
1.49261e-10
1.52033e-10
1.54846e-10
1.57699e-10
1.60593e-10
1.63527e-10
1.66503e-10
1.6952e-10
1.72578e-10
1.75678e-10
1.7882e-10
1.82004e-10
1.8523e-10
1.88499e-10
1.91809e-10
1.95162e-10
1.98558e-10
2.01995e-10
2.05475e-10
2.08997e-10
2.12561e-10
2.16167e-10
2.19815e-10
2.23504e-10
2.27233e-10
2.31003e-10
2.34813e-10
2.38663e-10
2.42551e-10
2.46477e-10
2.5044e-10
2.54439e-10
2.58473e-10
2.62541e-10
2.66641e-10
2.70772e-10
2.74931e-10
2.79117e-10
2.83328e-10
2.87561e-10
2.91814e-10
2.96083e-10
3.00365e-10
3.04657e-10
3.08955e-10
3.13253e-10
3.17547e-10
3.21832e-10
3.26102e-10
3.30349e-10
3.34567e-10
3.38748e-10
3.42883e-10
3.46962e-10
3.50975e-10
3.5491e-10
3.58753e-10
3.62492e-10
3.66111e-10
3.69593e-10
3.72919e-10
3.76071e-10
3.79025e-10
3.8176e-10
3.8425e-10
3.86467e-10
3.88385e-10
3.89975e-10
3.91206e-10
3.9205e-10
3.92481e-10
)
;
    }
}


// ************************************************************************* //
