/*--------------------------------*- C++ -*----------------------------------*\
  =========                 |
  \\      /  F ield         | OpenFOAM: The Open Source CFD Toolbox
   \\    /   O peration     | Website:  https://openfoam.org
    \\  /    A nd           | Version:  dev
     \\/     M anipulation  |
\*---------------------------------------------------------------------------*/
FoamFile
{
    format      ascii;
    class       volScalarField;
    location    "0.66";
    object      N1;
}
// * * * * * * * * * * * * * * * * * * * * * * * * * * * * * * * * * * * * * //

dimensions      [0 0 0 0 0 0 0];

internalField   nonuniform List<scalar> 
8000
(
6.98849e-16
2.22642e-15
3.90752e-15
5.73513e-15
7.7105e-15
9.84053e-15
1.21319e-14
1.45918e-14
1.7228e-14
2.00493e-14
2.30646e-14
2.62837e-14
2.97166e-14
3.33735e-14
3.72649e-14
4.14017e-14
4.57948e-14
5.04553e-14
5.53947e-14
6.06245e-14
6.61563e-14
7.20022e-14
7.81743e-14
8.4685e-14
9.15468e-14
9.87726e-14
1.06376e-13
1.14369e-13
1.22767e-13
1.31583e-13
1.40832e-13
1.50528e-13
1.60685e-13
1.71321e-13
1.82449e-13
1.94086e-13
2.06249e-13
2.18954e-13
2.32218e-13
2.4606e-13
2.60496e-13
2.75546e-13
2.91228e-13
3.07561e-13
3.24566e-13
3.42263e-13
3.60672e-13
3.79815e-13
3.99714e-13
4.20391e-13
4.41869e-13
4.64171e-13
4.87323e-13
5.11348e-13
5.36273e-13
5.62123e-13
5.88924e-13
6.16705e-13
6.45494e-13
6.75319e-13
7.06211e-13
7.38199e-13
7.71315e-13
8.05592e-13
8.41061e-13
8.77758e-13
9.15716e-13
9.54972e-13
9.95562e-13
1.03752e-12
1.0809e-12
1.12572e-12
1.17203e-12
1.21988e-12
1.2693e-12
1.32034e-12
1.37305e-12
1.42746e-12
1.48364e-12
1.54163e-12
1.60148e-12
1.66323e-12
1.72695e-12
1.7927e-12
1.86051e-12
1.93046e-12
2.0026e-12
2.077e-12
2.15371e-12
2.23279e-12
2.31433e-12
2.39838e-12
2.48501e-12
2.57429e-12
2.6663e-12
2.76112e-12
2.85881e-12
2.95946e-12
3.06315e-12
3.16997e-12
3.27999e-12
3.39332e-12
3.51003e-12
3.63022e-12
3.75399e-12
3.88143e-12
4.01264e-12
4.14773e-12
4.28681e-12
4.42997e-12
4.57734e-12
4.72902e-12
4.88514e-12
5.0458e-12
5.21115e-12
5.3813e-12
5.55637e-12
5.73652e-12
5.92186e-12
6.11255e-12
6.30872e-12
6.51052e-12
6.71811e-12
6.93163e-12
7.15124e-12
7.37712e-12
7.60941e-12
7.84831e-12
8.09397e-12
8.34658e-12
8.60633e-12
8.8734e-12
9.14798e-12
9.43027e-12
9.72048e-12
1.00188e-11
1.03255e-11
1.06407e-11
1.09647e-11
1.12977e-11
1.164e-11
1.19917e-11
1.23531e-11
1.27245e-11
1.31062e-11
1.34984e-11
1.39013e-11
1.43153e-11
1.47406e-11
1.51775e-11
1.56263e-11
1.60873e-11
1.65609e-11
1.70473e-11
1.75469e-11
1.806e-11
1.85869e-11
1.9128e-11
1.96836e-11
2.02542e-11
2.084e-11
2.14415e-11
2.20591e-11
2.26931e-11
2.3344e-11
2.40121e-11
2.46979e-11
2.54018e-11
2.61244e-11
2.68659e-11
2.7627e-11
2.8408e-11
2.92094e-11
3.00318e-11
3.08756e-11
3.17415e-11
3.26297e-11
3.35411e-11
3.4476e-11
3.5435e-11
3.64187e-11
3.74278e-11
3.84627e-11
3.95242e-11
4.06127e-11
4.1729e-11
4.28737e-11
4.40475e-11
4.5251e-11
4.6485e-11
4.775e-11
4.90469e-11
5.03764e-11
5.17392e-11
5.31361e-11
5.45678e-11
5.60351e-11
5.75388e-11
5.90799e-11
6.0659e-11
6.2277e-11
6.39348e-11
6.56333e-11
6.73734e-11
6.9156e-11
7.0982e-11
7.28524e-11
7.47682e-11
7.67302e-11
7.87396e-11
8.07974e-11
8.29045e-11
8.5062e-11
8.72711e-11
8.95328e-11
9.18482e-11
9.42185e-11
9.66447e-11
9.91282e-11
1.0167e-10
1.04271e-10
1.06933e-10
1.09658e-10
1.12445e-10
1.15297e-10
1.18215e-10
1.21201e-10
1.24255e-10
1.27379e-10
1.30574e-10
1.33842e-10
1.37184e-10
1.40602e-10
1.44098e-10
1.47672e-10
1.51326e-10
1.55062e-10
1.58881e-10
1.62785e-10
1.66776e-10
1.70855e-10
1.75024e-10
1.79284e-10
1.83638e-10
1.88087e-10
1.92632e-10
1.97276e-10
2.02021e-10
2.06867e-10
2.11818e-10
2.16874e-10
2.22038e-10
2.27313e-10
2.32698e-10
2.38198e-10
2.43813e-10
2.49545e-10
2.55398e-10
2.61372e-10
2.6747e-10
2.73694e-10
2.80046e-10
2.86528e-10
2.93143e-10
2.99892e-10
3.06779e-10
3.13804e-10
3.20971e-10
3.28282e-10
3.35738e-10
3.43343e-10
3.51098e-10
3.59007e-10
3.67071e-10
3.75293e-10
3.83676e-10
3.92221e-10
4.00931e-10
4.0981e-10
4.18858e-10
4.2808e-10
4.37476e-10
4.47051e-10
4.56807e-10
4.66746e-10
4.7687e-10
4.87183e-10
4.97687e-10
5.08385e-10
5.19279e-10
5.30373e-10
5.41669e-10
5.53169e-10
5.64876e-10
5.76794e-10
5.88925e-10
6.01271e-10
6.13836e-10
6.26622e-10
6.39632e-10
6.52869e-10
6.66336e-10
6.80035e-10
6.93969e-10
7.08142e-10
7.22556e-10
7.37213e-10
7.52117e-10
7.6727e-10
7.82675e-10
7.98336e-10
8.14254e-10
8.30433e-10
8.46875e-10
8.63583e-10
8.80561e-10
8.97809e-10
9.15333e-10
9.33133e-10
9.51213e-10
9.69575e-10
9.88222e-10
1.00716e-09
1.02638e-09
1.0459e-09
1.06571e-09
1.08582e-09
1.10623e-09
1.12694e-09
1.14796e-09
1.16928e-09
1.19091e-09
1.21285e-09
1.23511e-09
1.25768e-09
1.28056e-09
1.30377e-09
1.32729e-09
1.35113e-09
1.3753e-09
1.39979e-09
1.4246e-09
1.44974e-09
1.4752e-09
1.50099e-09
1.5271e-09
1.55354e-09
1.5803e-09
1.60739e-09
1.6348e-09
1.66254e-09
1.69059e-09
1.71896e-09
1.74764e-09
1.77664e-09
1.80594e-09
1.83555e-09
1.86545e-09
1.89565e-09
1.92613e-09
1.95689e-09
1.98791e-09
2.0192e-09
2.05073e-09
2.0825e-09
2.11449e-09
2.14668e-09
2.17907e-09
2.21162e-09
2.24433e-09
2.27717e-09
2.3101e-09
2.34311e-09
2.37616e-09
2.40922e-09
2.44225e-09
2.4752e-09
2.50804e-09
2.54071e-09
2.57315e-09
2.6053e-09
2.6371e-09
2.66848e-09
2.69934e-09
2.7296e-09
2.75916e-09
2.78791e-09
2.81574e-09
2.84252e-09
2.86811e-09
2.89234e-09
2.91507e-09
2.9361e-09
2.95524e-09
2.9723e-09
2.98705e-09
2.99927e-09
3.00874e-09
3.01523e-09
3.01854e-09
6.84602e-16
2.19468e-15
3.8616e-15
5.68297e-15
7.65866e-15
9.79325e-15
1.20927e-14
1.45637e-14
1.72141e-14
2.00527e-14
2.30885e-14
2.63315e-14
2.97917e-14
3.34797e-14
3.74063e-14
4.15825e-14
4.60196e-14
5.0729e-14
5.57223e-14
6.10115e-14
6.66086e-14
7.25259e-14
7.87758e-14
8.53711e-14
9.23248e-14
9.96502e-14
1.07361e-13
1.1547e-13
1.23993e-13
1.32943e-13
1.42336e-13
1.52186e-13
1.62509e-13
1.73321e-13
1.84638e-13
1.96476e-13
2.08852e-13
2.21784e-13
2.35289e-13
2.49386e-13
2.64093e-13
2.7943e-13
2.95415e-13
3.12069e-13
3.29412e-13
3.47466e-13
3.66251e-13
3.85789e-13
4.06105e-13
4.2722e-13
4.49158e-13
4.71943e-13
4.95602e-13
5.20158e-13
5.45639e-13
5.72072e-13
5.99483e-13
6.27902e-13
6.57358e-13
6.8788e-13
7.19499e-13
7.52247e-13
7.86155e-13
8.21258e-13
8.57588e-13
8.95182e-13
9.34074e-13
9.74302e-13
1.0159e-12
1.05892e-12
1.10338e-12
1.14934e-12
1.19684e-12
1.24591e-12
1.2966e-12
1.34897e-12
1.40304e-12
1.45888e-12
1.51654e-12
1.57605e-12
1.63748e-12
1.70088e-12
1.76631e-12
1.83381e-12
1.90345e-12
1.97528e-12
2.04938e-12
2.12579e-12
2.20459e-12
2.28584e-12
2.36961e-12
2.45597e-12
2.54499e-12
2.63674e-12
2.7313e-12
2.82875e-12
2.92917e-12
3.03263e-12
3.13922e-12
3.24903e-12
3.36215e-12
3.47866e-12
3.59866e-12
3.72225e-12
3.84952e-12
3.98058e-12
4.11552e-12
4.25446e-12
4.3975e-12
4.54475e-12
4.69633e-12
4.85235e-12
5.01294e-12
5.17822e-12
5.34832e-12
5.52336e-12
5.70349e-12
5.88883e-12
6.07953e-12
6.27573e-12
6.47757e-12
6.68522e-12
6.89883e-12
7.11855e-12
7.34455e-12
7.57699e-12
7.81605e-12
8.0619e-12
8.31473e-12
8.57471e-12
8.84204e-12
9.11692e-12
9.39953e-12
9.69009e-12
9.98879e-12
1.02959e-11
1.06115e-11
1.0936e-11
1.12695e-11
1.16123e-11
1.19646e-11
1.23267e-11
1.26988e-11
1.30811e-11
1.3474e-11
1.38777e-11
1.42925e-11
1.47187e-11
1.51566e-11
1.56064e-11
1.60685e-11
1.65431e-11
1.70307e-11
1.75315e-11
1.80459e-11
1.85741e-11
1.91166e-11
1.96738e-11
2.02459e-11
2.08334e-11
2.14366e-11
2.20559e-11
2.26918e-11
2.33446e-11
2.40148e-11
2.47028e-11
2.5409e-11
2.61339e-11
2.68779e-11
2.76415e-11
2.84252e-11
2.92294e-11
3.00547e-11
3.09016e-11
3.17706e-11
3.26622e-11
3.35769e-11
3.45154e-11
3.54782e-11
3.64658e-11
3.74789e-11
3.85181e-11
3.95839e-11
4.0677e-11
4.17981e-11
4.29477e-11
4.41266e-11
4.53355e-11
4.6575e-11
4.78458e-11
4.91487e-11
5.04844e-11
5.18536e-11
5.32572e-11
5.46958e-11
5.61704e-11
5.76817e-11
5.92305e-11
6.08176e-11
6.2444e-11
6.41106e-11
6.58181e-11
6.75675e-11
6.93598e-11
7.11959e-11
7.30767e-11
7.50032e-11
7.69764e-11
7.89974e-11
8.10671e-11
8.31866e-11
8.5357e-11
8.75794e-11
8.98549e-11
9.21845e-11
9.45696e-11
9.70111e-11
9.95103e-11
1.02068e-10
1.04687e-10
1.07366e-10
1.10109e-10
1.12915e-10
1.15786e-10
1.18724e-10
1.2173e-10
1.24806e-10
1.27952e-10
1.3117e-10
1.34461e-10
1.37828e-10
1.41271e-10
1.44792e-10
1.48393e-10
1.52075e-10
1.55839e-10
1.59688e-10
1.63623e-10
1.67645e-10
1.71756e-10
1.75958e-10
1.80253e-10
1.84643e-10
1.89128e-10
1.93711e-10
1.98394e-10
2.03179e-10
2.08067e-10
2.1306e-10
2.1816e-10
2.2337e-10
2.28691e-10
2.34124e-10
2.39673e-10
2.45339e-10
2.51125e-10
2.57031e-10
2.63061e-10
2.69216e-10
2.75499e-10
2.81912e-10
2.88457e-10
2.95136e-10
3.01952e-10
3.08906e-10
3.16002e-10
3.23241e-10
3.30626e-10
3.38158e-10
3.45842e-10
3.53678e-10
3.61669e-10
3.69818e-10
3.78128e-10
3.866e-10
3.95238e-10
4.04043e-10
4.13019e-10
4.22168e-10
4.31492e-10
4.40995e-10
4.50678e-10
4.60545e-10
4.70598e-10
4.8084e-10
4.91274e-10
5.01901e-10
5.12726e-10
5.23751e-10
5.34978e-10
5.46411e-10
5.58051e-10
5.69903e-10
5.81969e-10
5.94251e-10
6.06753e-10
6.19477e-10
6.32426e-10
6.45604e-10
6.59012e-10
6.72655e-10
6.86534e-10
7.00653e-10
7.15014e-10
7.29621e-10
7.44477e-10
7.59584e-10
7.74945e-10
7.90563e-10
8.06442e-10
8.22583e-10
8.3899e-10
8.55666e-10
8.72613e-10
8.89835e-10
9.07334e-10
9.25114e-10
9.43176e-10
9.61524e-10
9.8016e-10
9.99088e-10
1.01831e-09
1.03783e-09
1.05764e-09
1.07776e-09
1.09819e-09
1.11892e-09
1.13996e-09
1.16131e-09
1.18297e-09
1.20495e-09
1.22725e-09
1.24987e-09
1.27281e-09
1.29608e-09
1.31967e-09
1.34359e-09
1.36785e-09
1.39243e-09
1.41734e-09
1.44259e-09
1.46817e-09
1.49409e-09
1.52034e-09
1.54693e-09
1.57385e-09
1.60111e-09
1.62871e-09
1.65664e-09
1.6849e-09
1.7135e-09
1.74242e-09
1.77168e-09
1.80126e-09
1.83116e-09
1.86138e-09
1.89191e-09
1.92275e-09
1.95389e-09
1.98532e-09
2.01705e-09
2.04905e-09
2.08131e-09
2.11384e-09
2.14661e-09
2.17961e-09
2.21282e-09
2.24623e-09
2.27982e-09
2.31357e-09
2.34745e-09
2.38143e-09
2.4155e-09
2.44961e-09
2.48373e-09
2.51782e-09
2.55185e-09
2.58575e-09
2.61949e-09
2.65299e-09
2.68621e-09
2.71907e-09
2.75149e-09
2.78339e-09
2.81468e-09
2.84526e-09
2.87501e-09
2.90382e-09
2.93155e-09
2.95807e-09
2.9832e-09
3.00679e-09
3.02864e-09
3.04855e-09
3.06632e-09
3.08172e-09
3.09451e-09
3.10444e-09
3.11129e-09
3.11481e-09
6.71785e-16
2.15522e-15
3.79122e-15
5.5846e-15
7.53799e-15
9.65522e-15
1.19414e-14
1.4403e-14
1.70473e-14
1.98827e-14
2.29185e-14
2.61645e-14
2.96307e-14
3.33279e-14
3.7267e-14
4.14591e-14
4.59157e-14
5.06483e-14
5.56689e-14
6.09895e-14
6.66225e-14
7.25803e-14
7.88758e-14
8.5522e-14
9.25322e-14
9.992e-14
1.07699e-13
1.15884e-13
1.24489e-13
1.33529e-13
1.43019e-13
1.52974e-13
1.63411e-13
1.74346e-13
1.85794e-13
1.97775e-13
2.10303e-13
2.23399e-13
2.37078e-13
2.51362e-13
2.66268e-13
2.81815e-13
2.98025e-13
3.14918e-13
3.32514e-13
3.50836e-13
3.69905e-13
3.89744e-13
4.10376e-13
4.31825e-13
4.54115e-13
4.77272e-13
5.01321e-13
5.26289e-13
5.52202e-13
5.79088e-13
6.06975e-13
6.35892e-13
6.65871e-13
6.9694e-13
7.29131e-13
7.62478e-13
7.97012e-13
8.32768e-13
8.69782e-13
9.08087e-13
9.47723e-13
9.88725e-13
1.03113e-12
1.07499e-12
1.12033e-12
1.1672e-12
1.21564e-12
1.2657e-12
1.31742e-12
1.37084e-12
1.42603e-12
1.48302e-12
1.54186e-12
1.60261e-12
1.66533e-12
1.73006e-12
1.79686e-12
1.86579e-12
1.93691e-12
2.01028e-12
2.08596e-12
2.16402e-12
2.24452e-12
2.32754e-12
2.41313e-12
2.50137e-12
2.59234e-12
2.68611e-12
2.78276e-12
2.88236e-12
2.985e-12
3.09076e-12
3.19973e-12
3.312e-12
3.42765e-12
3.54678e-12
3.66948e-12
3.79586e-12
3.92601e-12
4.06003e-12
4.19804e-12
4.34014e-12
4.48644e-12
4.63705e-12
4.7921e-12
4.9517e-12
5.11598e-12
5.28506e-12
5.45907e-12
5.63815e-12
5.82244e-12
6.01206e-12
6.20718e-12
6.40793e-12
6.61447e-12
6.82694e-12
7.04552e-12
7.27036e-12
7.50164e-12
7.73951e-12
7.98416e-12
8.23577e-12
8.49452e-12
8.76061e-12
9.03421e-12
9.31555e-12
9.60481e-12
9.90221e-12
1.0208e-11
1.05223e-11
1.08454e-11
1.11775e-11
1.15189e-11
1.18698e-11
1.22305e-11
1.26011e-11
1.2982e-11
1.33735e-11
1.37757e-11
1.4189e-11
1.46137e-11
1.505e-11
1.54983e-11
1.59588e-11
1.64319e-11
1.69179e-11
1.74171e-11
1.79299e-11
1.84565e-11
1.89974e-11
1.95529e-11
2.01234e-11
2.07092e-11
2.13107e-11
2.19284e-11
2.25626e-11
2.32138e-11
2.38823e-11
2.45685e-11
2.5273e-11
2.59962e-11
2.67385e-11
2.75004e-11
2.82824e-11
2.9085e-11
2.99086e-11
3.07538e-11
3.16211e-11
3.2511e-11
3.34242e-11
3.4361e-11
3.53222e-11
3.63082e-11
3.73197e-11
3.83573e-11
3.94216e-11
4.05133e-11
4.16329e-11
4.27811e-11
4.39586e-11
4.51661e-11
4.64043e-11
4.76738e-11
4.89755e-11
5.03101e-11
5.16782e-11
5.30807e-11
5.45184e-11
5.59921e-11
5.75025e-11
5.90506e-11
6.06371e-11
6.2263e-11
6.3929e-11
6.56362e-11
6.73853e-11
6.91775e-11
7.10135e-11
7.28944e-11
7.48211e-11
7.67947e-11
7.88162e-11
8.08866e-11
8.3007e-11
8.51784e-11
8.7402e-11
8.96788e-11
9.201e-11
9.43968e-11
9.68403e-11
9.93417e-11
1.01902e-10
1.04523e-10
1.07206e-10
1.09951e-10
1.12761e-10
1.15636e-10
1.18578e-10
1.21589e-10
1.24669e-10
1.2782e-10
1.31043e-10
1.34341e-10
1.37713e-10
1.41163e-10
1.44691e-10
1.48299e-10
1.51989e-10
1.55762e-10
1.59619e-10
1.63563e-10
1.67595e-10
1.71717e-10
1.7593e-10
1.80237e-10
1.84638e-10
1.89136e-10
1.93732e-10
1.98429e-10
2.03229e-10
2.08132e-10
2.13141e-10
2.18259e-10
2.23486e-10
2.28825e-10
2.34278e-10
2.39847e-10
2.45535e-10
2.51342e-10
2.57271e-10
2.63325e-10
2.69505e-10
2.75814e-10
2.82254e-10
2.88827e-10
2.95536e-10
3.02382e-10
3.09368e-10
3.16496e-10
3.2377e-10
3.3119e-10
3.38759e-10
3.46481e-10
3.54357e-10
3.6239e-10
3.70582e-10
3.78936e-10
3.87454e-10
3.96139e-10
4.04994e-10
4.14021e-10
4.23223e-10
4.32602e-10
4.42161e-10
4.51903e-10
4.61831e-10
4.71947e-10
4.82253e-10
4.92754e-10
5.03451e-10
5.14347e-10
5.25446e-10
5.36749e-10
5.48261e-10
5.59983e-10
5.71918e-10
5.8407e-10
5.96442e-10
6.09036e-10
6.21855e-10
6.34902e-10
6.4818e-10
6.61693e-10
6.75442e-10
6.89432e-10
7.03664e-10
7.18142e-10
7.3287e-10
7.47849e-10
7.63084e-10
7.78576e-10
7.94329e-10
8.10346e-10
8.26631e-10
8.43185e-10
8.60011e-10
8.77114e-10
8.94495e-10
9.12158e-10
9.30106e-10
9.48341e-10
9.66867e-10
9.85686e-10
1.0048e-09
1.02421e-09
1.04393e-09
1.06395e-09
1.08428e-09
1.10492e-09
1.12586e-09
1.14713e-09
1.16871e-09
1.19061e-09
1.21284e-09
1.23539e-09
1.25826e-09
1.28147e-09
1.305e-09
1.32887e-09
1.35308e-09
1.37762e-09
1.4025e-09
1.42772e-09
1.45328e-09
1.47919e-09
1.50544e-09
1.53203e-09
1.55896e-09
1.58625e-09
1.61387e-09
1.64185e-09
1.67017e-09
1.69883e-09
1.72783e-09
1.75718e-09
1.78687e-09
1.81689e-09
1.84725e-09
1.87794e-09
1.90896e-09
1.9403e-09
1.97196e-09
2.00392e-09
2.03619e-09
2.06876e-09
2.10162e-09
2.13475e-09
2.16814e-09
2.20179e-09
2.23568e-09
2.26979e-09
2.30411e-09
2.33861e-09
2.37328e-09
2.40809e-09
2.44301e-09
2.47802e-09
2.51308e-09
2.54815e-09
2.58321e-09
2.61819e-09
2.65307e-09
2.68777e-09
2.72225e-09
2.75644e-09
2.79027e-09
2.82367e-09
2.85654e-09
2.8888e-09
2.92033e-09
2.95104e-09
2.9808e-09
3.00947e-09
3.0369e-09
3.06293e-09
3.0874e-09
3.1101e-09
3.13083e-09
3.14937e-09
3.16548e-09
3.1789e-09
3.18938e-09
3.19665e-09
3.20041e-09
6.59038e-16
2.11388e-15
3.71587e-15
5.47332e-15
7.3922e-15
9.47765e-15
1.17353e-14
1.41715e-14
1.67937e-14
1.96101e-14
2.26299e-14
2.58627e-14
2.93187e-14
3.30084e-14
3.69428e-14
4.11331e-14
4.55907e-14
5.03274e-14
5.53553e-14
6.06864e-14
6.63332e-14
7.23085e-14
7.86253e-14
8.52967e-14
9.23364e-14
9.97581e-14
1.07576e-13
1.15805e-13
1.24459e-13
1.33553e-13
1.43104e-13
1.53126e-13
1.63637e-13
1.74652e-13
1.86189e-13
1.98265e-13
2.10897e-13
2.24105e-13
2.37906e-13
2.52319e-13
2.67365e-13
2.83064e-13
2.99435e-13
3.165e-13
3.3428e-13
3.52797e-13
3.72074e-13
3.92134e-13
4.13002e-13
4.347e-13
4.57254e-13
4.8069e-13
5.05033e-13
5.30311e-13
5.56552e-13
5.83783e-13
6.12033e-13
6.41333e-13
6.71712e-13
7.03202e-13
7.35836e-13
7.69645e-13
8.04665e-13
8.40929e-13
8.78474e-13
9.17335e-13
9.57551e-13
9.9916e-13
1.0422e-12
1.08672e-12
1.13275e-12
1.18033e-12
1.22952e-12
1.28036e-12
1.33289e-12
1.38716e-12
1.44322e-12
1.50112e-12
1.56091e-12
1.62265e-12
1.68638e-12
1.75217e-12
1.82007e-12
1.89015e-12
1.96245e-12
2.03705e-12
2.114e-12
2.19338e-12
2.27525e-12
2.35967e-12
2.44673e-12
2.53649e-12
2.62903e-12
2.72442e-12
2.82274e-12
2.92408e-12
3.02851e-12
3.13613e-12
3.24702e-12
3.36126e-12
3.47896e-12
3.60021e-12
3.7251e-12
3.85373e-12
3.98621e-12
4.12264e-12
4.26313e-12
4.40779e-12
4.55673e-12
4.71007e-12
4.86793e-12
5.03043e-12
5.1977e-12
5.36987e-12
5.54706e-12
5.72942e-12
5.91709e-12
6.1102e-12
6.30891e-12
6.51336e-12
6.72372e-12
6.94012e-12
7.16275e-12
7.39176e-12
7.62733e-12
7.86963e-12
8.11884e-12
8.37514e-12
8.63872e-12
8.90978e-12
9.18851e-12
9.47512e-12
9.76981e-12
1.00728e-11
1.03843e-11
1.07045e-11
1.10337e-11
1.13721e-11
1.172e-11
1.20775e-11
1.2445e-11
1.28226e-11
1.32108e-11
1.36096e-11
1.40195e-11
1.44406e-11
1.48734e-11
1.5318e-11
1.57748e-11
1.62441e-11
1.67263e-11
1.72215e-11
1.77303e-11
1.82528e-11
1.87895e-11
1.93408e-11
1.99069e-11
2.04884e-11
2.10854e-11
2.16985e-11
2.23281e-11
2.29744e-11
2.36381e-11
2.43195e-11
2.5019e-11
2.5737e-11
2.64742e-11
2.72308e-11
2.80074e-11
2.88045e-11
2.96226e-11
3.04622e-11
3.13237e-11
3.22078e-11
3.3115e-11
3.40458e-11
3.50009e-11
3.59807e-11
3.69859e-11
3.80171e-11
3.90748e-11
4.01598e-11
4.12727e-11
4.24141e-11
4.35847e-11
4.47852e-11
4.60163e-11
4.72786e-11
4.8573e-11
4.99001e-11
5.12608e-11
5.26557e-11
5.40857e-11
5.55516e-11
5.70541e-11
5.85942e-11
6.01726e-11
6.17903e-11
6.34481e-11
6.51469e-11
6.68876e-11
6.86712e-11
7.04987e-11
7.23709e-11
7.42888e-11
7.62536e-11
7.82662e-11
8.03276e-11
8.24389e-11
8.46011e-11
8.68155e-11
8.90831e-11
9.1405e-11
9.37824e-11
9.62165e-11
9.87085e-11
1.0126e-10
1.03871e-10
1.06544e-10
1.0928e-10
1.1208e-10
1.14946e-10
1.17878e-10
1.20879e-10
1.23949e-10
1.27091e-10
1.30305e-10
1.33593e-10
1.36956e-10
1.40396e-10
1.43915e-10
1.47514e-10
1.51194e-10
1.54958e-10
1.58806e-10
1.62741e-10
1.66764e-10
1.70877e-10
1.75082e-10
1.7938e-10
1.83773e-10
1.88263e-10
1.92852e-10
1.97541e-10
2.02333e-10
2.07229e-10
2.12231e-10
2.17342e-10
2.22563e-10
2.27896e-10
2.33343e-10
2.38907e-10
2.44589e-10
2.50391e-10
2.56316e-10
2.62366e-10
2.68543e-10
2.74849e-10
2.81287e-10
2.87858e-10
2.94565e-10
3.0141e-10
3.08396e-10
3.15525e-10
3.22799e-10
3.30221e-10
3.37793e-10
3.45518e-10
3.53397e-10
3.61435e-10
3.69632e-10
3.77993e-10
3.86518e-10
3.95212e-10
4.04075e-10
4.13113e-10
4.22325e-10
4.31717e-10
4.41289e-10
4.51046e-10
4.60989e-10
4.71122e-10
4.81447e-10
4.91967e-10
5.02685e-10
5.13604e-10
5.24726e-10
5.36055e-10
5.47593e-10
5.59344e-10
5.71309e-10
5.83493e-10
5.95898e-10
6.08528e-10
6.21384e-10
6.34471e-10
6.4779e-10
6.61346e-10
6.75141e-10
6.89178e-10
7.03461e-10
7.17991e-10
7.32773e-10
7.4781e-10
7.63104e-10
7.78659e-10
7.94477e-10
8.10561e-10
8.26916e-10
8.43543e-10
8.60446e-10
8.77628e-10
8.95092e-10
9.12841e-10
9.30878e-10
9.49206e-10
9.67827e-10
9.86746e-10
1.00596e-09
1.02549e-09
1.04531e-09
1.06545e-09
1.08589e-09
1.10665e-09
1.12773e-09
1.14913e-09
1.17085e-09
1.19289e-09
1.21526e-09
1.23796e-09
1.26099e-09
1.28436e-09
1.30806e-09
1.33211e-09
1.35649e-09
1.38122e-09
1.40629e-09
1.4317e-09
1.45747e-09
1.48358e-09
1.51005e-09
1.53686e-09
1.56403e-09
1.59156e-09
1.61943e-09
1.64766e-09
1.67624e-09
1.70518e-09
1.73447e-09
1.76411e-09
1.7941e-09
1.82444e-09
1.85513e-09
1.88615e-09
1.91752e-09
1.94923e-09
1.98126e-09
2.01362e-09
2.0463e-09
2.07929e-09
2.11259e-09
2.14618e-09
2.18006e-09
2.21421e-09
2.24862e-09
2.28328e-09
2.31818e-09
2.35328e-09
2.38858e-09
2.42405e-09
2.45967e-09
2.49541e-09
2.53125e-09
2.56714e-09
2.60306e-09
2.63896e-09
2.6748e-09
2.71053e-09
2.7461e-09
2.78145e-09
2.81652e-09
2.85123e-09
2.88551e-09
2.91927e-09
2.95241e-09
2.98484e-09
3.01643e-09
3.04707e-09
3.07662e-09
3.10493e-09
3.13183e-09
3.15715e-09
3.18069e-09
3.20223e-09
3.22154e-09
3.23838e-09
3.25247e-09
3.26353e-09
3.27123e-09
3.27526e-09
6.47001e-16
2.07465e-15
3.64447e-15
5.36563e-15
7.24634e-15
9.29364e-15
1.15144e-14
1.39158e-14
1.65057e-14
1.92926e-14
2.22855e-14
2.54941e-14
2.89286e-14
3.25994e-14
3.65174e-14
4.06938e-14
4.51399e-14
4.98676e-14
5.48889e-14
6.0216e-14
6.58614e-14
7.18379e-14
7.81588e-14
8.48373e-14
9.18872e-14
9.93225e-14
1.07157e-13
1.15407e-13
1.24086e-13
1.33209e-13
1.42794e-13
1.52855e-13
1.63409e-13
1.74472e-13
1.86064e-13
1.982e-13
2.10899e-13
2.24179e-13
2.3806e-13
2.52562e-13
2.67702e-13
2.83504e-13
2.99986e-13
3.1717e-13
3.35079e-13
3.53735e-13
3.7316e-13
3.93379e-13
4.14415e-13
4.36294e-13
4.5904e-13
4.8268e-13
5.07239e-13
5.32747e-13
5.5923e-13
5.86717e-13
6.15239e-13
6.44824e-13
6.75505e-13
7.07313e-13
7.4028e-13
7.7444e-13
8.09828e-13
8.46479e-13
8.84429e-13
9.23716e-13
9.64377e-13
1.00645e-12
1.04998e-12
1.095e-12
1.14156e-12
1.18971e-12
1.23947e-12
1.29091e-12
1.34407e-12
1.399e-12
1.45574e-12
1.51435e-12
1.57488e-12
1.63739e-12
1.70192e-12
1.76854e-12
1.8373e-12
1.90827e-12
1.9815e-12
2.05707e-12
2.13502e-12
2.21544e-12
2.29838e-12
2.38392e-12
2.47213e-12
2.56309e-12
2.65686e-12
2.75354e-12
2.85319e-12
2.9559e-12
3.06176e-12
3.17084e-12
3.28325e-12
3.39907e-12
3.51839e-12
3.64132e-12
3.76794e-12
3.89837e-12
4.0327e-12
4.17104e-12
4.3135e-12
4.4602e-12
4.61125e-12
4.76676e-12
4.92686e-12
5.09168e-12
5.26134e-12
5.43597e-12
5.6157e-12
5.80068e-12
5.99105e-12
6.18695e-12
6.38853e-12
6.59594e-12
6.80934e-12
7.02889e-12
7.25476e-12
7.48711e-12
7.72612e-12
7.97196e-12
8.22482e-12
8.48488e-12
8.75234e-12
9.02738e-12
9.31022e-12
9.60106e-12
9.9001e-12
1.02076e-11
1.05237e-11
1.08487e-11
1.11827e-11
1.15262e-11
1.18792e-11
1.22421e-11
1.2615e-11
1.29983e-11
1.33922e-11
1.37971e-11
1.42131e-11
1.46406e-11
1.50798e-11
1.55311e-11
1.59948e-11
1.64711e-11
1.69605e-11
1.74633e-11
1.79797e-11
1.85101e-11
1.9055e-11
1.96146e-11
2.01893e-11
2.07795e-11
2.13857e-11
2.20081e-11
2.26472e-11
2.33034e-11
2.39772e-11
2.46689e-11
2.53791e-11
2.61081e-11
2.68565e-11
2.76247e-11
2.84132e-11
2.92225e-11
3.00531e-11
3.09056e-11
3.17803e-11
3.2678e-11
3.35992e-11
3.45443e-11
3.5514e-11
3.6509e-11
3.75296e-11
3.85767e-11
3.96508e-11
4.07526e-11
4.18827e-11
4.30418e-11
4.42305e-11
4.54496e-11
4.66998e-11
4.79817e-11
4.92962e-11
5.06439e-11
5.20257e-11
5.34424e-11
5.48947e-11
5.63834e-11
5.79094e-11
5.94735e-11
6.10766e-11
6.27195e-11
6.44033e-11
6.61287e-11
6.78967e-11
6.97083e-11
7.15644e-11
7.3466e-11
7.54141e-11
7.74097e-11
7.9454e-11
8.15478e-11
8.36924e-11
8.58888e-11
8.81381e-11
9.04415e-11
9.28001e-11
9.52151e-11
9.76878e-11
1.00219e-10
1.02811e-10
1.05464e-10
1.08179e-10
1.10959e-10
1.13803e-10
1.16714e-10
1.19694e-10
1.22742e-10
1.25862e-10
1.29053e-10
1.32318e-10
1.35659e-10
1.39076e-10
1.42571e-10
1.46147e-10
1.49803e-10
1.53542e-10
1.57367e-10
1.61277e-10
1.65275e-10
1.69363e-10
1.73542e-10
1.77815e-10
1.82182e-10
1.86646e-10
1.91209e-10
1.95871e-10
2.00637e-10
2.05506e-10
2.10482e-10
2.15565e-10
2.20759e-10
2.26065e-10
2.31484e-10
2.37021e-10
2.42675e-10
2.4845e-10
2.54347e-10
2.60369e-10
2.66518e-10
2.72795e-10
2.79205e-10
2.85748e-10
2.92427e-10
2.99244e-10
3.06201e-10
3.13302e-10
3.20548e-10
3.27942e-10
3.35487e-10
3.43184e-10
3.51036e-10
3.59046e-10
3.67216e-10
3.75549e-10
3.84048e-10
3.92715e-10
4.01553e-10
4.10564e-10
4.19751e-10
4.29118e-10
4.38665e-10
4.48398e-10
4.58317e-10
4.68426e-10
4.78728e-10
4.89226e-10
4.99922e-10
5.1082e-10
5.21922e-10
5.33231e-10
5.4475e-10
5.56482e-10
5.68431e-10
5.80598e-10
5.92988e-10
6.05602e-10
6.18445e-10
6.31518e-10
6.44826e-10
6.58372e-10
6.72157e-10
6.86187e-10
7.00462e-10
7.14988e-10
7.29766e-10
7.448e-10
7.60093e-10
7.75648e-10
7.91468e-10
8.07557e-10
8.23917e-10
8.40551e-10
8.57464e-10
8.74657e-10
8.92134e-10
9.09899e-10
9.27953e-10
9.46301e-10
9.64945e-10
9.83888e-10
1.00313e-09
1.02268e-09
1.04254e-09
1.06271e-09
1.0832e-09
1.104e-09
1.12512e-09
1.14657e-09
1.16834e-09
1.19043e-09
1.21286e-09
1.23562e-09
1.25872e-09
1.28216e-09
1.30593e-09
1.33005e-09
1.35452e-09
1.37933e-09
1.40449e-09
1.43001e-09
1.45587e-09
1.4821e-09
1.50867e-09
1.53561e-09
1.5629e-09
1.59055e-09
1.61857e-09
1.64694e-09
1.67567e-09
1.70477e-09
1.73422e-09
1.76404e-09
1.79422e-09
1.82475e-09
1.85564e-09
1.88688e-09
1.91847e-09
1.95041e-09
1.98269e-09
2.01531e-09
2.04827e-09
2.08155e-09
2.11515e-09
2.14906e-09
2.18328e-09
2.21779e-09
2.25258e-09
2.28765e-09
2.32296e-09
2.35852e-09
2.39429e-09
2.43027e-09
2.46643e-09
2.50275e-09
2.53919e-09
2.57574e-09
2.61235e-09
2.64899e-09
2.68562e-09
2.7222e-09
2.75868e-09
2.79501e-09
2.83112e-09
2.86695e-09
2.90244e-09
2.93749e-09
2.97204e-09
3.00597e-09
3.03919e-09
3.07159e-09
3.10303e-09
3.13339e-09
3.1625e-09
3.1902e-09
3.21632e-09
3.24064e-09
3.26295e-09
3.283e-09
3.30054e-09
3.31528e-09
3.32689e-09
3.33503e-09
3.33931e-09
6.36347e-16
2.0398e-15
3.58106e-15
5.26914e-15
7.11336e-15
9.12234e-15
1.13044e-14
1.36679e-14
1.62214e-14
1.89738e-14
2.19346e-14
2.51135e-14
2.85205e-14
3.21662e-14
3.60613e-14
4.02169e-14
4.46444e-14
4.93554e-14
5.43619e-14
5.96762e-14
6.53108e-14
7.12785e-14
7.75927e-14
8.42667e-14
9.13143e-14
9.87498e-14
1.06588e-13
1.14843e-13
1.2353e-13
1.32665e-13
1.42264e-13
1.52343e-13
1.62919e-13
1.7401e-13
1.85631e-13
1.97802e-13
2.1054e-13
2.23865e-13
2.37796e-13
2.52352e-13
2.67554e-13
2.83422e-13
2.99977e-13
3.17242e-13
3.35238e-13
3.53987e-13
3.73515e-13
3.93843e-13
4.14997e-13
4.37002e-13
4.59884e-13
4.83668e-13
5.08382e-13
5.34054e-13
5.60712e-13
5.88386e-13
6.17104e-13
6.46898e-13
6.77799e-13
7.09839e-13
7.43052e-13
7.77472e-13
8.13133e-13
8.50071e-13
8.88323e-13
9.27926e-13
9.6892e-13
1.01134e-12
1.05524e-12
1.10064e-12
1.1476e-12
1.19617e-12
1.24637e-12
1.29827e-12
1.3519e-12
1.40733e-12
1.46459e-12
1.52374e-12
1.58483e-12
1.64792e-12
1.71307e-12
1.78032e-12
1.84975e-12
1.9214e-12
1.99535e-12
2.07165e-12
2.15037e-12
2.23159e-12
2.31536e-12
2.40176e-12
2.49086e-12
2.58274e-12
2.67747e-12
2.77514e-12
2.87581e-12
2.97959e-12
3.08654e-12
3.19677e-12
3.31035e-12
3.42739e-12
3.54798e-12
3.6722e-12
3.80018e-12
3.93199e-12
4.06776e-12
4.20759e-12
4.35159e-12
4.49988e-12
4.65256e-12
4.80977e-12
4.97162e-12
5.13824e-12
5.30975e-12
5.4863e-12
5.66802e-12
5.85505e-12
6.04752e-12
6.2456e-12
6.44942e-12
6.65914e-12
6.87493e-12
7.09694e-12
7.32534e-12
7.5603e-12
7.802e-12
8.05062e-12
8.30634e-12
8.56934e-12
8.83983e-12
9.118e-12
9.40405e-12
9.6982e-12
1.00007e-11
1.03116e-11
1.06314e-11
1.09601e-11
1.1298e-11
1.16454e-11
1.20025e-11
1.23695e-11
1.27468e-11
1.31345e-11
1.3533e-11
1.39425e-11
1.43633e-11
1.47958e-11
1.52401e-11
1.56967e-11
1.61657e-11
1.66477e-11
1.71428e-11
1.76514e-11
1.81739e-11
1.87105e-11
1.92618e-11
1.98279e-11
2.04094e-11
2.10066e-11
2.16198e-11
2.22496e-11
2.28962e-11
2.35602e-11
2.4242e-11
2.49419e-11
2.56605e-11
2.63982e-11
2.71554e-11
2.79327e-11
2.87306e-11
2.95496e-11
3.03901e-11
3.12527e-11
3.21379e-11
3.30463e-11
3.39785e-11
3.49349e-11
3.59163e-11
3.69231e-11
3.79561e-11
3.90157e-11
4.01027e-11
4.12178e-11
4.23615e-11
4.35345e-11
4.47376e-11
4.59714e-11
4.72367e-11
4.85341e-11
4.98645e-11
5.12286e-11
5.26272e-11
5.4061e-11
5.5531e-11
5.70378e-11
5.85823e-11
6.01655e-11
6.17882e-11
6.34512e-11
6.51555e-11
6.6902e-11
6.86917e-11
7.05254e-11
7.24043e-11
7.43292e-11
7.63013e-11
7.83214e-11
8.03908e-11
8.25105e-11
8.46815e-11
8.6905e-11
8.91821e-11
9.15139e-11
9.39017e-11
9.63467e-11
9.885e-11
1.01413e-10
1.04037e-10
1.06722e-10
1.09472e-10
1.12286e-10
1.15166e-10
1.18113e-10
1.2113e-10
1.24216e-10
1.27375e-10
1.30606e-10
1.33913e-10
1.37295e-10
1.40755e-10
1.44294e-10
1.47914e-10
1.51617e-10
1.55404e-10
1.59276e-10
1.63236e-10
1.67284e-10
1.71424e-10
1.75656e-10
1.79983e-10
1.84405e-10
1.88926e-10
1.93547e-10
1.98269e-10
2.03095e-10
2.08026e-10
2.13065e-10
2.18214e-10
2.23474e-10
2.28848e-10
2.34337e-10
2.39944e-10
2.45671e-10
2.5152e-10
2.57493e-10
2.63592e-10
2.69821e-10
2.7618e-10
2.82672e-10
2.89299e-10
2.96064e-10
3.0297e-10
3.10018e-10
3.17211e-10
3.24551e-10
3.32041e-10
3.39684e-10
3.47481e-10
3.55436e-10
3.63551e-10
3.71828e-10
3.8027e-10
3.8888e-10
3.97661e-10
4.06615e-10
4.15744e-10
4.25053e-10
4.34542e-10
4.44216e-10
4.54077e-10
4.64127e-10
4.7437e-10
4.84809e-10
4.95446e-10
5.06284e-10
5.17326e-10
5.28576e-10
5.40035e-10
5.51708e-10
5.63597e-10
5.75705e-10
5.88035e-10
6.0059e-10
6.13374e-10
6.26389e-10
6.39638e-10
6.53125e-10
6.66853e-10
6.80824e-10
6.95043e-10
7.09511e-10
7.24233e-10
7.39211e-10
7.54449e-10
7.69949e-10
7.85716e-10
8.01751e-10
8.18059e-10
8.34642e-10
8.51504e-10
8.68647e-10
8.86076e-10
9.03792e-10
9.218e-10
9.40103e-10
9.58702e-10
9.77603e-10
9.96807e-10
1.01632e-09
1.03614e-09
1.05627e-09
1.07672e-09
1.09749e-09
1.11858e-09
1.14e-09
1.16174e-09
1.18381e-09
1.20622e-09
1.22896e-09
1.25204e-09
1.27546e-09
1.29923e-09
1.32334e-09
1.3478e-09
1.37261e-09
1.39777e-09
1.42329e-09
1.44916e-09
1.47539e-09
1.50199e-09
1.52894e-09
1.55626e-09
1.58394e-09
1.61199e-09
1.6404e-09
1.66918e-09
1.69833e-09
1.72784e-09
1.75773e-09
1.78797e-09
1.81859e-09
1.84956e-09
1.8809e-09
1.9126e-09
1.94465e-09
1.97706e-09
2.00982e-09
2.04292e-09
2.07636e-09
2.11014e-09
2.14424e-09
2.17867e-09
2.2134e-09
2.24843e-09
2.28375e-09
2.31935e-09
2.35521e-09
2.39131e-09
2.42765e-09
2.46419e-09
2.50092e-09
2.53781e-09
2.57484e-09
2.61198e-09
2.64919e-09
2.68644e-09
2.72369e-09
2.76089e-09
2.798e-09
2.83496e-09
2.87171e-09
2.9082e-09
2.94434e-09
2.98007e-09
3.01528e-09
3.0499e-09
3.08381e-09
3.1169e-09
3.14904e-09
3.1801e-09
3.20992e-09
3.23833e-09
3.26515e-09
3.29017e-09
3.31317e-09
3.3339e-09
3.35208e-09
3.3674e-09
3.37952e-09
3.38806e-09
3.39258e-09
6.2742e-16
2.01058e-15
3.52798e-15
5.18809e-15
7.00068e-15
8.97541e-15
1.11218e-14
1.34495e-14
1.59677e-14
1.86862e-14
2.16147e-14
2.47632e-14
2.81418e-14
3.1761e-14
3.56315e-14
3.97643e-14
4.41706e-14
4.88621e-14
5.38506e-14
5.91483e-14
6.47678e-14
7.0722e-14
7.70241e-14
8.36875e-14
9.07263e-14
9.81545e-14
1.05987e-13
1.14239e-13
1.22924e-13
1.32061e-13
1.41663e-13
1.51748e-13
1.62332e-13
1.73433e-13
1.85069e-13
1.97258e-13
2.10017e-13
2.23367e-13
2.37326e-13
2.51914e-13
2.67153e-13
2.83062e-13
2.99663e-13
3.16978e-13
3.3503e-13
3.53841e-13
3.73435e-13
3.93837e-13
4.1507e-13
4.3716e-13
4.60134e-13
4.84017e-13
5.08838e-13
5.34624e-13
5.61403e-13
5.89206e-13
6.18063e-13
6.48004e-13
6.79061e-13
7.11267e-13
7.44655e-13
7.7926e-13
8.15116e-13
8.52261e-13
8.9073e-13
9.30562e-13
9.71797e-13