/*--------------------------------*- C++ -*----------------------------------*\
  =========                 |
  \\      /  F ield         | OpenFOAM: The Open Source CFD Toolbox
   \\    /   O peration     | Website:  https://openfoam.org
    \\  /    A nd           | Version:  dev
     \\/     M anipulation  |
\*---------------------------------------------------------------------------*/
FoamFile
{
    format      ascii;
    class       volScalarField;
    location    "0.74";
    object      Exp1;
}
// * * * * * * * * * * * * * * * * * * * * * * * * * * * * * * * * * * * * * //

dimensions      [0 0 0 0 0 0 0];

internalField   uniform 0;

boundaryField
{
    frontAndBack
    {
        type            empty;
    }
    inlet
    {
        type            calculated;
        value           uniform 0;
    }
    outlet
    {
        type            calculated;
        value           uniform 0;
    }
    substrate
    {
        type            calculated;
        value           nonuniform List<scalar> 
400
(
1.25103e-18
3.98459e-18
6.99196e-18
1.02605e-17
1.37925e-17
1.76001e-17
2.16954e-17
2.60909e-17
3.08008e-17
3.58402e-17
4.12255e-17
4.69738e-17
5.31028e-17
5.96308e-17
6.65765e-17
7.39591e-17
8.17979e-17
9.0113e-17
9.89243e-17
1.08253e-16
1.18118e-16
1.28543e-16
1.39548e-16
1.51155e-16
1.63387e-16
1.76267e-16
1.89818e-16
2.04063e-16
2.19028e-16
2.34736e-16
2.51214e-16
2.68487e-16
2.86583e-16
3.05527e-16
3.25348e-16
3.46075e-16
3.67737e-16
3.90363e-16
4.13984e-16
4.38632e-16
4.64339e-16
4.91138e-16
5.19061e-16
5.48145e-16
5.78424e-16
6.09935e-16
6.42715e-16
6.76802e-16
7.12235e-16
7.49055e-16
7.87302e-16
8.2702e-16
8.68252e-16
9.11041e-16
9.55435e-16
1.00148e-15
1.04922e-15
1.09871e-15
1.15001e-15
1.20315e-15
1.2582e-15
1.31521e-15
1.37423e-15
1.43534e-15
1.49857e-15
1.564e-15
1.6317e-15
1.70171e-15
1.77412e-15
1.84899e-15
1.92639e-15
2.00639e-15
2.08906e-15
2.17449e-15
2.26275e-15
2.35392e-15
2.44809e-15
2.54534e-15
2.64576e-15
2.74943e-15
2.85646e-15
2.96693e-15
3.08095e-15
3.19861e-15
3.32002e-15
3.44529e-15
3.57452e-15
3.70783e-15
3.84533e-15
3.98714e-15
4.13339e-15
4.2842e-15
4.43969e-15
4.60001e-15
4.76529e-15
4.93566e-15
5.11128e-15
5.29229e-15
5.47884e-15
5.67109e-15
5.8692e-15
6.07334e-15
6.28367e-15
6.50038e-15
6.72363e-15
6.95362e-15
7.19054e-15
7.43458e-15
7.68593e-15
7.94481e-15
8.21143e-15
8.486e-15
8.76875e-15
9.05991e-15
9.3597e-15
9.66839e-15
9.9862e-15
1.03134e-14
1.06503e-14
1.0997e-14
1.1354e-14
1.17214e-14
1.20997e-14
1.2489e-14
1.28896e-14
1.3302e-14
1.37264e-14
1.41632e-14
1.46126e-14
1.50751e-14
1.5551e-14
1.60407e-14
1.65445e-14
1.70629e-14
1.75963e-14
1.8145e-14
1.87095e-14
1.92902e-14
1.98876e-14
2.0502e-14
2.11341e-14
2.17843e-14
2.2453e-14
2.31408e-14
2.38482e-14
2.45757e-14
2.53239e-14
2.60933e-14
2.68845e-14
2.76981e-14
2.85347e-14
2.93949e-14
3.02794e-14
3.11888e-14
3.21238e-14
3.30851e-14
3.40734e-14
3.50893e-14
3.61337e-14
3.72073e-14
3.83109e-14
3.94453e-14
4.06112e-14
4.18096e-14
4.30413e-14
4.43072e-14
4.56082e-14
4.69452e-14
4.83191e-14
4.9731e-14
5.11818e-14
5.26726e-14
5.42043e-14
5.57782e-14
5.73952e-14
5.90565e-14
6.07632e-14
6.25166e-14
6.43178e-14
6.61681e-14
6.80688e-14
7.00211e-14
7.20263e-14
7.4086e-14
7.62013e-14
7.83738e-14
8.06049e-14
8.28962e-14
8.5249e-14
8.76651e-14
9.01461e-14
9.26934e-14
9.5309e-14
9.79943e-14
1.00751e-13
1.03582e-13
1.06487e-13
1.0947e-13
1.12532e-13
1.15675e-13
1.18901e-13
1.22212e-13
1.2561e-13
1.29098e-13
1.32677e-13
1.36351e-13
1.4012e-13
1.43988e-13
1.47956e-13
1.52028e-13
1.56206e-13
1.60493e-13
1.6489e-13
1.69401e-13
1.74029e-13
1.78776e-13
1.83645e-13
1.88639e-13
1.93762e-13
1.99015e-13
2.04403e-13
2.09928e-13
2.15594e-13
2.21404e-13
2.27361e-13
2.33469e-13
2.39732e-13
2.46152e-13
2.52734e-13
2.59482e-13
2.66398e-13
2.73488e-13
2.80755e-13
2.88204e-13
2.95837e-13
3.0366e-13
3.11678e-13
3.19893e-13
3.28311e-13
3.36937e-13
3.45775e-13
3.54829e-13
3.64105e-13
3.73608e-13
3.83343e-13
3.93314e-13
4.03528e-13
4.13989e-13
4.24703e-13
4.35675e-13
4.46911e-13
4.58417e-13
4.70199e-13
4.82262e-13
4.94613e-13
5.07258e-13
5.20203e-13
5.33455e-13
5.4702e-13
5.60904e-13
5.75116e-13
5.89661e-13
6.04546e-13
6.19779e-13
6.35366e-13
6.51316e-13
6.67636e-13
6.84333e-13
7.01416e-13
7.18891e-13
7.36768e-13
7.55053e-13
7.73757e-13
7.92886e-13
8.1245e-13
8.32457e-13
8.52916e-13
8.73837e-13
8.95227e-13
9.17097e-13
9.39457e-13
9.62314e-13
9.8568e-13
1.00956e-12
1.03398e-12
1.05893e-12
1.08443e-12
1.11048e-12
1.13711e-12
1.16432e-12
1.19212e-12
1.22052e-12
1.24954e-12
1.27918e-12
1.30945e-12
1.34038e-12
1.37197e-12
1.40422e-12
1.43717e-12
1.47081e-12
1.50515e-12
1.54022e-12
1.57603e-12
1.61258e-12
1.64989e-12
1.68798e-12
1.72685e-12
1.76652e-12
1.80701e-12
1.84833e-12
1.89049e-12
1.9335e-12
1.97739e-12
2.02216e-12
2.06782e-12
2.11441e-12
2.16192e-12
2.21037e-12
2.25978e-12
2.31016e-12
2.36154e-12
2.41391e-12
2.46731e-12
2.52173e-12
2.57721e-12
2.63375e-12
2.69136e-12
2.75008e-12
2.8099e-12
2.87084e-12
2.93293e-12
2.99617e-12
3.06058e-12
3.12618e-12
3.19297e-12
3.26098e-12
3.33022e-12
3.40069e-12
3.47242e-12
3.54542e-12
3.6197e-12
3.69527e-12
3.77214e-12
3.85033e-12
3.92985e-12
4.01069e-12
4.09288e-12
4.17642e-12
4.26132e-12
4.34758e-12
4.4352e-12
4.52419e-12
4.61455e-12
4.70627e-12
4.79936e-12
4.89381e-12
4.9896e-12
5.08674e-12
5.1852e-12
5.28497e-12
5.38603e-12
5.48835e-12
5.59191e-12
5.69667e-12
5.80259e-12
5.90964e-12
6.01775e-12
6.12688e-12
6.23695e-12
6.3479e-12
6.45965e-12
6.5721e-12
6.68516e-12
6.7987e-12
6.9126e-12
7.02673e-12
7.14093e-12
7.25503e-12
7.36884e-12
7.48215e-12
7.59473e-12
7.70633e-12
7.81667e-12
7.92544e-12
8.03231e-12
8.13692e-12
8.23885e-12
8.33767e-12
8.43289e-12
8.524e-12
8.61043e-12
8.69156e-12
8.76673e-12
8.83522e-12
8.89629e-12
8.94913e-12
8.99294e-12
9.02688e-12
9.05016e-12
9.06207e-12
)
;
    }
    Wall
    {
        type            calculated;
        value           nonuniform List<scalar> 
400
(
1.25101e-18
3.98451e-18
6.99182e-18
1.02603e-17
1.37922e-17
1.75997e-17
2.16949e-17
2.60902e-17
3.07999e-17
3.58391e-17
4.12242e-17
4.69722e-17
5.3101e-17
5.96287e-17
6.6574e-17
7.39562e-17
8.17947e-17
9.01094e-17
9.89203e-17
1.08248e-16
1.18113e-16
1.28538e-16
1.39542e-16
1.51149e-16
1.63381e-16
1.7626e-16
1.8981e-16
2.04055e-16
2.19019e-16
2.34727e-16
2.51204e-16
2.68477e-16
2.86572e-16
3.05515e-16
3.25336e-16
3.46062e-16
3.67723e-16
3.90349e-16
4.1397e-16
4.38617e-16
4.64323e-16
4.91121e-16
5.19043e-16
5.48126e-16
5.78404e-16
6.09914e-16
6.42693e-16
6.76779e-16
7.12211e-16
7.4903e-16
7.87276e-16
8.26993e-16
8.68223e-16
9.11012e-16
9.55404e-16
1.00145e-15
1.04919e-15
1.09868e-15
1.14997e-15
1.20311e-15
1.25816e-15
1.31517e-15
1.37419e-15
1.43529e-15
1.49853e-15
1.56396e-15
1.63165e-15
1.70166e-15
1.77407e-15
1.84893e-15
1.92633e-15
2.00633e-15
2.089e-15
2.17443e-15
2.26269e-15
2.35386e-15
2.44802e-15
2.54527e-15
2.64568e-15
2.74935e-15
2.85638e-15
2.96685e-15
3.08086e-15
3.19852e-15
3.31993e-15
3.44519e-15
3.57442e-15
3.70773e-15
3.84522e-15
3.98703e-15
4.13328e-15
4.28408e-15
4.43957e-15
4.59988e-15
4.76516e-15
4.93552e-15
5.11114e-15
5.29214e-15
5.47868e-15
5.67093e-15
5.86904e-15
6.07317e-15
6.2835e-15
6.5002e-15
6.72345e-15
6.95343e-15
7.19034e-15
7.43437e-15
7.68572e-15
7.94459e-15
8.21121e-15
8.48577e-15
8.76851e-15
9.05966e-15
9.35945e-15
9.66812e-15
9.98593e-15
1.03131e-14
1.065e-14
1.09967e-14
1.13537e-14
1.17211e-14
1.20993e-14
1.24886e-14
1.28893e-14
1.33017e-14
1.3726e-14
1.41628e-14
1.46122e-14
1.50747e-14
1.55506e-14
1.60403e-14
1.65441e-14
1.70625e-14
1.75958e-14
1.81445e-14
1.8709e-14
1.92897e-14
1.9887e-14
2.05015e-14
2.11336e-14
2.17837e-14
2.24524e-14
2.31402e-14
2.38476e-14
2.45751e-14
2.53232e-14
2.60926e-14
2.68838e-14
2.76974e-14
2.8534e-14
2.93942e-14
3.02787e-14
3.1188e-14
3.2123e-14
3.30843e-14
3.40725e-14
3.50884e-14
3.61328e-14
3.72064e-14
3.83099e-14
3.94443e-14
4.06102e-14
4.18086e-14
4.30402e-14
4.43061e-14
4.5607e-14
4.6944e-14
4.83179e-14
4.97297e-14
5.11805e-14
5.26712e-14
5.42029e-14
5.57767e-14
5.73937e-14
5.9055e-14
6.07617e-14
6.2515e-14
6.43162e-14
6.61664e-14
6.8067e-14
7.00193e-14
7.20245e-14
7.40841e-14
7.61994e-14
7.83718e-14
8.06029e-14
8.2894e-14
8.52469e-14
8.76629e-14
9.01438e-14
9.26911e-14
9.53065e-14
9.79919e-14
1.00749e-13
1.03579e-13
1.06485e-13
1.09467e-13
1.12529e-13
1.15672e-13
1.18898e-13
1.22209e-13
1.25607e-13
1.29095e-13
1.32674e-13
1.36347e-13
1.40116e-13
1.43984e-13
1.47953e-13
1.52025e-13
1.56202e-13
1.60489e-13
1.64886e-13
1.69397e-13
1.74025e-13
1.78771e-13
1.83641e-13
1.88635e-13
1.93757e-13
1.9901e-13
2.04398e-13
2.09923e-13
2.15589e-13
2.21398e-13
2.27355e-13
2.33463e-13
2.39726e-13
2.46146e-13
2.52728e-13
2.59475e-13
2.66392e-13
2.73482e-13
2.80748e-13
2.88196e-13
2.9583e-13
3.03653e-13
3.1167e-13
3.19885e-13
3.28303e-13
3.36929e-13
3.45766e-13
3.5482e-13
3.64097e-13
3.73599e-13
3.83334e-13
3.93305e-13
4.03518e-13
4.13979e-13
4.24692e-13
4.35664e-13
4.469e-13
4.58406e-13
4.70187e-13
4.8225e-13
4.94601e-13
5.07245e-13
5.2019e-13
5.33442e-13
5.47006e-13
5.60891e-13
5.75102e-13
5.89646e-13
6.04531e-13
6.19764e-13
6.35351e-13
6.51301e-13
6.6762e-13
6.84317e-13
7.01399e-13
7.18874e-13
7.3675e-13
7.55035e-13
7.73738e-13
7.92867e-13
8.1243e-13
8.32437e-13
8.52896e-13
8.73815e-13
8.95206e-13
9.17075e-13
9.39434e-13
9.62291e-13
9.85656e-13
1.00954e-12
1.03395e-12
1.0589e-12
1.0844e-12
1.11046e-12
1.13708e-12
1.16429e-12
1.19209e-12
1.22049e-12
1.24951e-12
1.27915e-12
1.30942e-12
1.34035e-12
1.37193e-12
1.40419e-12
1.43713e-12
1.47077e-12
1.50512e-12
1.54019e-12
1.57599e-12
1.61254e-12
1.64985e-12
1.68794e-12
1.72681e-12
1.76648e-12
1.80697e-12
1.84829e-12
1.89044e-12
1.93346e-12
1.97734e-12
2.02211e-12
2.06778e-12
2.11436e-12
2.16187e-12
2.21032e-12
2.25973e-12
2.31011e-12
2.36148e-12
2.41386e-12
2.46725e-12
2.52167e-12
2.57715e-12
2.63368e-12
2.6913e-12
2.75001e-12
2.80983e-12
2.87078e-12
2.93286e-12
2.9961e-12
3.06051e-12
3.12611e-12
3.1929e-12
3.26091e-12
3.33014e-12
3.40062e-12
3.47235e-12
3.54534e-12
3.61962e-12
3.69519e-12
3.77206e-12
3.85025e-12
3.92976e-12
4.01061e-12
4.0928e-12
4.17633e-12
4.26123e-12
4.34748e-12
4.4351e-12
4.52409e-12
4.61445e-12
4.70617e-12
4.79926e-12
4.8937e-12
4.98949e-12
5.08663e-12
5.18508e-12
5.28485e-12
5.38591e-12
5.48823e-12
5.59179e-12
5.69654e-12
5.80247e-12
5.90951e-12
6.01762e-12
6.12675e-12
6.23682e-12
6.34777e-12
6.45952e-12
6.57197e-12
6.68502e-12
6.79856e-12
6.91246e-12
7.02659e-12
7.14079e-12
7.25489e-12
7.36869e-12
7.482e-12
7.59458e-12
7.70618e-12
7.81652e-12
7.92529e-12
8.03216e-12
8.13676e-12
8.2387e-12
8.33752e-12
8.43274e-12
8.52385e-12
8.61028e-12
8.69141e-12
8.76658e-12
8.83507e-12
8.89614e-12
8.94899e-12
8.9928e-12
9.02676e-12
9.05005e-12
9.06195e-12
)
;
    }
}


// ************************************************************************* //
