/*--------------------------------*- C++ -*----------------------------------*\
  =========                 |
  \\      /  F ield         | OpenFOAM: The Open Source CFD Toolbox
   \\    /   O peration     | Website:  https://openfoam.org
    \\  /    A nd           | Version:  dev
     \\/     M anipulation  |
\*---------------------------------------------------------------------------*/
FoamFile
{
    format      ascii;
    class       volScalarField;
    location    "0.74";
    object      N1;
}
// * * * * * * * * * * * * * * * * * * * * * * * * * * * * * * * * * * * * * //

dimensions      [0 0 0 0 0 0 0];

internalField   nonuniform List<scalar> 
8000
(
9.49842e-18
3.02604e-17
5.31093e-17
7.79498e-17
1.04799e-16
1.33751e-16
1.64896e-16
1.98332e-16
2.34167e-16
2.72517e-16
3.13507e-16
3.57268e-16
4.03936e-16
4.53652e-16
5.06559e-16
5.62803e-16
6.22536e-16
6.85907e-16
7.53074e-16
8.24192e-16
8.99423e-16
9.78929e-16
1.06288e-15
1.15143e-15
1.24477e-15
1.34307e-15
1.44651e-15
1.55526e-15
1.66953e-15
1.7895e-15
1.91536e-15
2.04732e-15
2.18557e-15
2.33034e-15
2.48184e-15
2.64028e-15
2.80589e-15
2.9789e-15
3.15955e-15
3.34807e-15
3.54472e-15
3.74975e-15
3.96342e-15
4.18599e-15
4.41774e-15
4.65895e-15
4.9099e-15
5.1709e-15
5.44224e-15
5.72423e-15
6.01718e-15
6.32144e-15
6.63732e-15
6.96518e-15
7.30536e-15
7.65824e-15
8.02417e-15
8.40354e-15
8.79674e-15
9.20418e-15
9.62627e-15
1.00634e-14
1.05161e-14
1.09847e-14
1.14698e-14
1.19717e-14
1.2491e-14
1.30282e-14
1.35837e-14
1.41582e-14
1.47521e-14
1.53661e-14
1.60006e-14
1.66563e-14
1.73338e-14
1.80337e-14
1.87566e-14
1.95032e-14
2.02742e-14
2.10702e-14
2.1892e-14
2.27403e-14
2.36159e-14
2.45195e-14
2.5452e-14
2.64141e-14
2.74067e-14
2.84307e-14
2.94869e-14
3.05763e-14
3.16998e-14
3.28584e-14
3.4053e-14
3.52847e-14
3.65546e-14
3.78636e-14
3.9213e-14
4.06039e-14
4.20374e-14
4.35148e-14
4.50372e-14
4.6606e-14
4.82224e-14
4.98879e-14
5.16037e-14
5.33713e-14
5.51922e-14
5.70679e-14
5.89999e-14
6.09897e-14
6.30391e-14
6.51496e-14
6.73231e-14
6.95612e-14
7.18657e-14
7.42387e-14
7.66818e-14
7.91972e-14
8.17868e-14
8.44527e-14
8.7197e-14
9.00219e-14
9.29297e-14
9.59226e-14
9.90031e-14
1.02174e-13
1.05436e-13
1.08794e-13
1.1225e-13
1.15806e-13
1.19465e-13
1.2323e-13
1.27104e-13
1.3109e-13
1.35191e-13
1.3941e-13
1.4375e-13
1.48216e-13
1.52809e-13
1.57534e-13
1.62394e-13
1.67394e-13
1.72536e-13
1.77824e-13
1.83264e-13
1.88858e-13
1.94611e-13
2.00528e-13
2.06612e-13
2.12868e-13
2.19302e-13
2.25917e-13
2.32718e-13
2.39712e-13
2.46902e-13
2.54294e-13
2.61894e-13
2.69706e-13
2.77738e-13
2.85994e-13
2.94481e-13
3.03204e-13
3.1217e-13
3.21386e-13
3.30858e-13
3.40593e-13
3.50598e-13
3.6088e-13
3.71446e-13
3.82304e-13
3.93461e-13
4.04925e-13
4.16705e-13
4.28808e-13
4.41244e-13
4.5402e-13
4.67146e-13
4.8063e-13
4.94482e-13
5.08712e-13
5.23329e-13
5.38343e-13
5.53764e-13
5.69604e-13
5.85872e-13
6.0258e-13
6.19738e-13
6.37359e-13
6.55454e-13
6.74035e-13
6.93115e-13
7.12706e-13
7.32821e-13
7.53473e-13
7.74676e-13
7.96444e-13
8.18791e-13
8.4173e-13
8.65278e-13
8.8945e-13
9.1426e-13
9.39724e-13
9.6586e-13
9.92683e-13
1.02021e-12
1.04846e-12
1.07745e-12
1.10719e-12
1.13771e-12
1.16903e-12
1.20116e-12
1.23413e-12
1.26795e-12
1.30264e-12
1.33823e-12
1.37474e-12
1.41219e-12
1.4506e-12
1.48999e-12
1.5304e-12
1.57183e-12
1.61432e-12
1.6579e-12
1.70258e-12
1.7484e-12
1.79537e-12
1.84354e-12
1.89292e-12
1.94354e-12
1.99543e-12
2.04863e-12
2.10315e-12
2.15904e-12
2.21632e-12
2.27503e-12
2.3352e-12
2.39686e-12
2.46004e-12
2.52479e-12
2.59112e-12
2.65909e-12
2.72873e-12
2.80007e-12
2.87316e-12
2.94803e-12
3.02471e-12
3.10326e-12
3.18372e-12
3.26611e-12
3.3505e-12
3.43692e-12
3.52541e-12
3.61602e-12
3.70879e-12
3.80378e-12
3.90103e-12
4.00059e-12
4.10251e-12
4.20684e-12
4.31362e-12
4.42292e-12
4.53478e-12
4.64926e-12
4.76641e-12
4.8863e-12
5.00897e-12
5.13448e-12
5.26289e-12
5.39427e-12
5.52867e-12
5.66616e-12
5.80679e-12
5.95064e-12
6.09776e-12
6.24822e-12
6.40209e-12
6.55944e-12
6.72034e-12
6.88485e-12
7.05305e-12
7.22501e-12
7.4008e-12
7.58051e-12
7.7642e-12
7.95195e-12
8.14384e-12
8.33995e-12
8.54035e-12
8.74514e-12
8.9544e-12
9.1682e-12
9.38664e-12
9.60979e-12
9.83775e-12
1.00706e-11
1.03085e-11
1.05514e-11
1.07995e-11
1.10528e-11
1.13115e-11
1.15757e-11
1.18454e-11
1.21208e-11
1.24019e-11
1.26889e-11
1.29818e-11
1.32807e-11
1.35859e-11
1.38973e-11
1.4215e-11
1.45393e-11
1.48701e-11
1.52076e-11
1.55519e-11
1.59031e-11
1.62614e-11
1.66268e-11
1.69994e-11
1.73794e-11
1.77669e-11
1.8162e-11
1.85648e-11
1.89755e-11
1.93941e-11
1.98207e-11
2.02555e-11
2.06987e-11
2.11502e-11
2.16103e-11
2.2079e-11
2.25565e-11
2.30429e-11
2.35383e-11
2.40428e-11
2.45565e-11
2.50795e-11
2.5612e-11
2.6154e-11
2.67057e-11
2.72671e-11
2.78384e-11
2.84196e-11
2.90108e-11
2.96122e-11
3.02237e-11
3.08455e-11
3.14776e-11
3.21201e-11
3.2773e-11
3.34364e-11
3.41103e-11
3.47947e-11
3.54896e-11
3.61951e-11
3.6911e-11
3.76374e-11
3.83741e-11
3.91212e-11
3.98784e-11
4.06457e-11
4.14229e-11
4.22099e-11
4.30063e-11
4.3812e-11
4.46267e-11
4.54499e-11
4.62814e-11
4.71207e-11
4.79673e-11
4.88206e-11
4.968e-11
5.05449e-11
5.14144e-11
5.22876e-11
5.31636e-11
5.40414e-11
5.49197e-11
5.57972e-11
5.66725e-11
5.75439e-11
5.84098e-11
5.92681e-11
6.01167e-11
6.09532e-11
6.17752e-11
6.25797e-11
6.33636e-11
6.41236e-11
6.4856e-11
6.55567e-11
6.62214e-11
6.68453e-11
6.74234e-11
6.79502e-11
6.84199e-11
6.88263e-11
6.91632e-11
6.94242e-11
6.96033e-11
6.96948e-11
9.30478e-18
2.98291e-17
5.24852e-17
7.72408e-17
1.04094e-16
1.33108e-16
1.64362e-16
1.9795e-16
2.33978e-16
2.72563e-16
3.13831e-16
3.57916e-16
4.04957e-16
4.55096e-16
5.0848e-16
5.65261e-16
6.25591e-16
6.89626e-16
7.57526e-16
8.29453e-16
9.0557e-16
9.86045e-16
1.07105e-15
1.16076e-15
1.25535e-15
1.355e-15
1.4599e-15
1.57023e-15
1.6862e-15
1.80799e-15
1.93581e-15
2.06987e-15
2.21037e-15
2.35754e-15
2.5116e-15
2.67277e-15
2.84129e-15
3.01739e-15
3.20131e-15
3.39332e-15
3.59365e-15
3.80259e-15
4.02038e-15
4.24732e-15
4.48368e-15
4.72974e-15
4.98582e-15
5.25221e-15
5.52922e-15
5.81717e-15
6.1164e-15
6.42724e-15
6.75003e-15
7.08513e-15
7.4329e-15
7.79372e-15
8.16797e-15
8.55604e-15
8.95835e-15
9.37529e-15
9.80731e-15
1.02548e-14
1.07183e-14
1.11982e-14
1.1695e-14
1.22092e-14
1.27413e-14
1.32917e-14
1.38611e-14
1.445e-14
1.50589e-14
1.56884e-14
1.6339e-14
1.70115e-14
1.77064e-14
1.84244e-14
1.91661e-14
1.99322e-14
2.07234e-14
2.15404e-14
2.23839e-14
2.32547e-14
2.41537e-14
2.50815e-14
2.60389e-14
2.7027e-14
2.80464e-14
2.90981e-14
3.01831e-14
3.13022e-14
3.24564e-14
3.36468e-14
3.48743e-14
3.614e-14
3.7445e-14
3.87903e-14
4.01773e-14
4.16069e-14
4.30804e-14
4.45991e-14
4.61642e-14
4.7777e-14
4.9439e-14
5.11514e-14
5.29157e-14
5.47333e-14
5.66058e-14
5.85348e-14
6.05217e-14
6.25682e-14
6.4676e-14
6.68468e-14
6.90824e-14
7.13846e-14
7.37552e-14
7.61963e-14
7.87096e-14
8.12974e-14
8.39615e-14
8.67043e-14
8.95278e-14
9.24344e-14
9.54263e-14
9.85058e-14
1.01676e-13
1.04938e-13
1.08296e-13
1.11751e-13
1.15307e-13
1.18966e-13
1.22732e-13
1.26607e-13
1.30594e-13
1.34696e-13
1.38917e-13
1.43259e-13
1.47726e-13
1.52322e-13
1.5705e-13
1.61913e-13
1.66916e-13
1.72062e-13
1.77355e-13
1.82799e-13
1.88398e-13
1.94156e-13
2.00078e-13
2.06169e-13
2.12432e-13
2.18872e-13
2.25495e-13
2.32305e-13
2.39307e-13
2.46506e-13
2.53908e-13
2.61518e-13
2.69342e-13
2.77385e-13
2.85654e-13
2.94154e-13
3.02891e-13
3.11872e-13
3.21104e-13
3.30592e-13
3.40344e-13
3.50367e-13
3.60668e-13
3.71254e-13
3.82133e-13
3.93312e-13
4.048e-13
4.16604e-13
4.28733e-13
4.41195e-13
4.53999e-13
4.67154e-13
4.80669e-13
4.94553e-13
5.08816e-13
5.23468e-13
5.38519e-13
5.53979e-13
5.69859e-13
5.86169e-13
6.0292e-13
6.20124e-13
6.37793e-13
6.55938e-13
6.74571e-13
6.93705e-13
7.13352e-13
7.33526e-13
7.54239e-13
7.75506e-13
7.9734e-13
8.19756e-13
8.42768e-13
8.66391e-13
8.90641e-13
9.15532e-13
9.41081e-13
9.67305e-13
9.9422e-13
1.02184e-12
1.05019e-12
1.07928e-12
1.10913e-12
1.13977e-12
1.1712e-12
1.20345e-12
1.23654e-12
1.27049e-12
1.30532e-12
1.34105e-12
1.37771e-12
1.4153e-12
1.45387e-12
1.49343e-12
1.534e-12
1.57561e-12
1.61829e-12
1.66205e-12
1.70693e-12
1.75295e-12
1.80013e-12
1.84851e-12
1.89812e-12
1.94898e-12
2.00111e-12
2.05456e-12
2.10935e-12
2.16551e-12
2.22307e-12
2.28207e-12
2.34254e-12
2.40451e-12
2.46801e-12
2.53309e-12
2.59978e-12
2.66811e-12
2.73811e-12
2.80984e-12
2.88332e-12
2.9586e-12
3.03571e-12
3.1147e-12
3.19561e-12
3.27848e-12
3.36335e-12
3.45027e-12
3.53929e-12
3.63044e-12
3.72377e-12
3.81933e-12
3.91718e-12
4.01735e-12
4.11991e-12
4.22489e-12
4.33235e-12
4.44235e-12
4.55494e-12
4.67017e-12
4.78809e-12
4.90877e-12
5.03227e-12
5.15863e-12
5.28792e-12
5.42021e-12
5.55554e-12
5.69399e-12
5.83562e-12
5.9805e-12
6.12868e-12
6.28024e-12
6.43524e-12
6.59375e-12
6.75585e-12
6.9216e-12
7.09108e-12
7.26435e-12
7.44151e-12
7.62261e-12
7.80774e-12
7.99698e-12
8.1904e-12
8.38809e-12
8.59013e-12
8.7966e-12
9.00758e-12
9.22316e-12
9.44343e-12
9.66848e-12
9.89839e-12
1.01332e-11
1.03732e-11
1.06182e-11
1.08685e-11
1.11241e-11
1.13851e-11
1.16517e-11
1.19238e-11
1.22017e-11
1.24854e-11
1.27751e-11
1.30708e-11
1.33726e-11
1.36806e-11
1.3995e-11
1.43158e-11
1.46432e-11
1.49773e-11
1.53182e-11
1.56659e-11
1.60207e-11
1.63826e-11
1.67518e-11
1.71283e-11
1.75122e-11
1.79038e-11
1.83031e-11
1.87102e-11
1.91253e-11
1.95484e-11
1.99798e-11
2.04194e-11
2.08675e-11
2.13242e-11
2.17895e-11
2.22636e-11
2.27466e-11
2.32387e-11
2.37399e-11
2.42504e-11
2.47703e-11
2.52997e-11
2.58387e-11
2.63875e-11
2.69461e-11
2.75146e-11
2.80932e-11
2.8682e-11
2.9281e-11
2.98903e-11
3.05101e-11
3.11404e-11
3.17813e-11
3.24328e-11
3.3095e-11
3.3768e-11
3.44518e-11
3.51464e-11
3.58519e-11
3.65682e-11
3.72954e-11
3.80334e-11
3.87822e-11
3.95418e-11
4.03119e-11
4.10926e-11
4.18837e-11
4.2685e-11
4.34964e-11
4.43177e-11
4.51484e-11
4.59885e-11
4.68375e-11
4.7695e-11
4.85606e-11
4.94337e-11
5.03139e-11
5.12005e-11
5.20927e-11
5.29897e-11
5.38907e-11
5.47947e-11
5.57006e-11
5.66071e-11
5.7513e-11
5.84166e-11
5.93165e-11
6.02107e-11
6.10973e-11
6.19742e-11
6.28388e-11
6.36885e-11
6.45205e-11
6.53315e-11
6.61181e-11
6.68765e-11
6.76026e-11
6.82919e-11
6.89394e-11
6.954e-11
7.00879e-11
7.05772e-11
7.10014e-11
7.13539e-11
7.16279e-11
7.18167e-11
7.19138e-11
9.13056e-18
2.92927e-17
5.15286e-17
7.59037e-17
1.02454e-16
1.31231e-16
1.62307e-16
1.95765e-16
2.31709e-16
2.70252e-16
3.1152e-16
3.55646e-16
4.02768e-16
4.53032e-16
5.06585e-16
5.63582e-16
6.24176e-16
6.88527e-16
7.56797e-16
8.2915e-16
9.05755e-16
9.86782e-16
1.07241e-15
1.16281e-15
1.25816e-15
1.35866e-15
1.46449e-15
1.57585e-15
1.69293e-15
1.81594e-15
1.94508e-15
2.08057e-15
2.22262e-15
2.37147e-15
2.52732e-15
2.69042e-15
2.86101e-15
3.03933e-15
3.22563e-15
3.42017e-15
3.62321e-15
3.83501e-15
4.05587e-15
4.28605e-15
4.52585e-15
4.77557e-15
5.03551e-15
5.30598e-15
5.58731e-15
5.87981e-15
6.18384e-15
6.49973e-15
6.82784e-15
7.16854e-15
7.5222e-15
7.88919e-15
8.26993e-15
8.6648e-15
9.07422e-15
9.49863e-15
9.93845e-15
1.03941e-14
1.08662e-14
1.1355e-14
1.18611e-14
1.2385e-14
1.29272e-14
1.34882e-14
1.40687e-14
1.4669e-14
1.52899e-14
1.59318e-14
1.65954e-14
1.72814e-14
1.79903e-14
1.87228e-14
1.94796e-14
2.02614e-14
2.10689e-14
2.19028e-14
2.27639e-14
2.3653e-14
2.45708e-14
2.55182e-14
2.6496e-14
2.7505e-14
2.85463e-14
2.96206e-14
3.07289e-14
3.18722e-14
3.30515e-14
3.42677e-14
3.5522e-14
3.68154e-14
3.81491e-14
3.95241e-14
4.09416e-14
4.24029e-14
4.39092e-14
4.54617e-14
4.70617e-14
4.87107e-14
5.04099e-14
5.21608e-14
5.39648e-14
5.58235e-14
5.77384e-14
5.9711e-14
6.1743e-14
6.3836e-14
6.59919e-14
6.82122e-14
7.04989e-14
7.28538e-14
7.52788e-14
7.77759e-14
8.0347e-14
8.29943e-14
8.57199e-14
8.8526e-14
9.14148e-14
9.43886e-14
9.74498e-14
1.00601e-13
1.03844e-13
1.07182e-13
1.10618e-13
1.14154e-13
1.17793e-13
1.21538e-13
1.25391e-13
1.29357e-13
1.33437e-13
1.37635e-13
1.41955e-13
1.46399e-13
1.50971e-13
1.55675e-13
1.60514e-13
1.65491e-13
1.70612e-13
1.75879e-13
1.81297e-13
1.86869e-13
1.926e-13
1.98495e-13
2.04557e-13
2.10791e-13
2.17202e-13
2.23795e-13
2.30575e-13
2.37546e-13
2.44714e-13
2.52084e-13
2.59662e-13
2.67452e-13
2.75462e-13
2.83696e-13
2.92161e-13
3.00863e-13
3.09808e-13
3.19003e-13
3.28455e-13
3.38169e-13
3.48153e-13
3.58415e-13
3.68962e-13
3.798e-13
3.90939e-13
4.02385e-13
4.14147e-13
4.26233e-13
4.38652e-13
4.51412e-13
4.64523e-13
4.77992e-13
4.91831e-13
5.06048e-13
5.20653e-13
5.35656e-13
5.51067e-13
5.66898e-13
5.83158e-13
5.9986e-13
6.17013e-13
6.3463e-13
6.52723e-13
6.71304e-13
6.90385e-13
7.09979e-13
7.30098e-13
7.50757e-13
7.71969e-13
7.93748e-13
8.16108e-13
8.39064e-13
8.6263e-13
8.86822e-13
9.11656e-13
9.37148e-13
9.63314e-13
9.9017e-13
1.01773e-12
1.04602e-12
1.07506e-12
1.10485e-12
1.13542e-12
1.1668e-12
1.19899e-12
1.23202e-12
1.26591e-12
1.30068e-12
1.33636e-12
1.37295e-12
1.41049e-12
1.449e-12
1.4885e-12
1.52902e-12
1.57058e-12
1.6132e-12
1.65691e-12
1.70173e-12
1.7477e-12
1.79484e-12
1.84317e-12
1.89273e-12
1.94354e-12
1.99563e-12
2.04903e-12
2.10378e-12
2.1599e-12
2.21743e-12
2.2764e-12
2.33683e-12
2.39877e-12
2.46225e-12
2.52731e-12
2.59397e-12
2.66229e-12
2.73228e-12
2.804e-12
2.87747e-12
2.95275e-12
3.02987e-12
3.10887e-12
3.18979e-12
3.27268e-12
3.35757e-12
3.44452e-12
3.53357e-12
3.62476e-12
3.71814e-12
3.81376e-12
3.91167e-12
4.01192e-12
4.11455e-12
4.21962e-12
4.32718e-12
4.43728e-12
4.54998e-12
4.66533e-12
4.78339e-12
4.90421e-12
5.02786e-12
5.15439e-12
5.28387e-12
5.41634e-12
5.55188e-12
5.69055e-12
5.83242e-12
5.97754e-12
6.12598e-12
6.27782e-12
6.43311e-12
6.59194e-12
6.75437e-12
6.92047e-12
7.09032e-12
7.26398e-12
7.44155e-12
7.62308e-12
7.80866e-12
7.99838e-12
8.1923e-12
8.39052e-12
8.5931e-12
8.80015e-12
9.01174e-12
9.22795e-12
9.44888e-12
9.67462e-12
9.90525e-12
1.01409e-11
1.03816e-11
1.06274e-11
1.08786e-11
1.11351e-11
1.13971e-11
1.16646e-11
1.19378e-11
1.22167e-11
1.25015e-11
1.27923e-11
1.30892e-11
1.33922e-11
1.37016e-11
1.40173e-11
1.43396e-11
1.46684e-11
1.5004e-11
1.53464e-11
1.56958e-11
1.60523e-11
1.6416e-11
1.67869e-11
1.71653e-11
1.75513e-11
1.79449e-11
1.83463e-11
1.87556e-11
1.9173e-11
1.95985e-11
2.00323e-11
2.04745e-11
2.09252e-11
2.13845e-11
2.18527e-11
2.23297e-11
2.28158e-11
2.3311e-11
2.38155e-11
2.43294e-11
2.48528e-11
2.53859e-11
2.59287e-11
2.64814e-11
2.7044e-11
2.76168e-11
2.81998e-11
2.87931e-11
2.93968e-11
3.00111e-11
3.06359e-11
3.12715e-11
3.19178e-11
3.25751e-11
3.32432e-11
3.39224e-11
3.46126e-11
3.5314e-11
3.60264e-11
3.675e-11
3.74848e-11
3.82307e-11
3.89878e-11
3.9756e-11
4.05352e-11
4.13253e-11
4.21263e-11
4.2938e-11
4.37602e-11
4.45928e-11
4.54356e-11
4.62882e-11
4.71504e-11
4.80218e-11
4.89021e-11
4.97907e-11
5.06872e-11
5.1591e-11
5.25014e-11
5.34178e-11
5.43392e-11
5.52649e-11
5.61938e-11
5.71247e-11
5.80566e-11
5.89879e-11
5.99172e-11
6.08429e-11
6.1763e-11
6.26756e-11
6.35785e-11
6.44691e-11
6.53449e-11
6.62028e-11
6.70396e-11
6.78519e-11
6.86357e-11
6.93868e-11
7.01006e-11
7.07721e-11
7.13959e-11
7.19661e-11
7.24765e-11
7.29203e-11
7.32904e-11
7.35794e-11
7.37798e-11
7.38836e-11
8.9573e-18
2.87308e-17
5.05043e-17
7.43911e-17
1.00472e-16
1.28818e-16
1.59504e-16
1.92619e-16
2.28262e-16
2.66547e-16
3.07596e-16
3.51543e-16
3.98525e-16
4.48686e-16
5.02176e-16
5.59147e-16
6.19756e-16
6.84163e-16
7.5253e-16
8.25025e-16
9.01818e-16
9.83082e-16
1.06899e-15
1.15974e-15
1.25549e-15
1.35645e-15
1.46281e-15
1.57476e-15
1.69251e-15
1.81626e-15
1.94622e-15
2.08262e-15
2.22568e-15
2.37561e-15
2.53266e-15
2.69706e-15
2.86906e-15
3.0489e-15
3.23685e-15
3.43316e-15
3.63811e-15
3.85196e-15
4.075e-15
4.30753e-15
4.54983e-15
4.80221e-15
5.06498e-15
5.33846e-15
5.62298e-15
5.91887e-15
6.22649e-15
6.54617e-15
6.87829e-15
7.22322e-15
7.58133e-15
7.95303e-15
8.3387e-15
8.73877e-15
9.15366e-15
9.58381e-15
1.00297e-14
1.04917e-14
1.09703e-14
1.1466e-14
1.19794e-14
1.25109e-14
1.3061e-14
1.36303e-14
1.42193e-14
1.48287e-14
1.54589e-14
1.61107e-14
1.67845e-14
1.74811e-14
1.82011e-14
1.89451e-14
1.97139e-14
2.05082e-14
2.13286e-14
2.2176e-14
2.3051e-14
2.39546e-14
2.48875e-14
2.58505e-14
2.68445e-14
2.78703e-14
2.8929e-14
3.00213e-14
3.11484e-14
3.23111e-14
3.35104e-14
3.47474e-14
3.60233e-14
3.7339e-14
3.86957e-14
4.00945e-14
4.15367e-14
4.30235e-14
4.45561e-14
4.61359e-14
4.77641e-14
4.94422e-14
5.11714e-14
5.29534e-14
5.47896e-14
5.66814e-14
5.86305e-14
6.06385e-14
6.2707e-14
6.48377e-14
6.70324e-14
6.92928e-14
7.16209e-14
7.40185e-14
7.64876e-14
7.90301e-14
8.16481e-14
8.43438e-14
8.71192e-14
8.99767e-14
9.29184e-14
9.59468e-14
9.90643e-14
1.02273e-13
1.05577e-13
1.08976e-13
1.12476e-13
1.16077e-13
1.19783e-13
1.23598e-13
1.27523e-13
1.31562e-13
1.35718e-13
1.39994e-13
1.44394e-13
1.48921e-13
1.53579e-13
1.58371e-13
1.633e-13
1.68371e-13
1.73588e-13
1.78954e-13
1.84473e-13
1.9015e-13
1.95989e-13
2.01994e-13
2.08171e-13
2.14522e-13
2.21055e-13
2.27772e-13
2.3468e-13
2.41782e-13
2.49086e-13
2.56595e-13
2.64317e-13
2.72255e-13
2.80416e-13
2.88807e-13
2.97433e-13
3.063e-13
3.15415e-13
3.24785e-13
3.34415e-13
3.44315e-13
3.54489e-13
3.64947e-13
3.75694e-13
3.86739e-13
3.9809e-13
4.09755e-13
4.21742e-13
4.34059e-13
4.46715e-13
4.59719e-13
4.7308e-13
4.86808e-13
5.00912e-13
5.15401e-13
5.30286e-13
5.45577e-13
5.61284e-13
5.77418e-13
5.93991e-13
6.11013e-13
6.28496e-13
6.46453e-13
6.64893e-13
6.83832e-13
7.0328e-13
7.23251e-13
7.43759e-13
7.64816e-13
7.86437e-13
8.08636e-13
8.31428e-13
8.54827e-13
8.78849e-13
9.03509e-13
9.28823e-13
9.54808e-13
9.8148e-13
1.00886e-12
1.03695e-12
1.06579e-12
1.09539e-12
1.12576e-12
1.15693e-12
1.18891e-12
1.22173e-12
1.2554e-12
1.28995e-12
1.3254e-12
1.36176e-12
1.39907e-12
1.43734e-12
1.4766e-12
1.51688e-12
1.55818e-12
1.60055e-12
1.644e-12
1.68856e-12
1.73426e-12
1.78113e-12
1.82919e-12
1.87847e-12
1.92899e-12
1.9808e-12
2.03391e-12
2.08836e-12
2.14418e-12
2.2014e-12
2.26006e-12
2.32018e-12
2.38181e-12
2.44496e-12
2.50969e-12
2.57602e-12
2.644e-12
2.71366e-12
2.78503e-12
2.85816e-12
2.93309e-12
3.00985e-12
3.08849e-12
3.16904e-12
3.25156e-12
3.33609e-12
3.42266e-12
3.51133e-12
3.60214e-12
3.69513e-12
3.79036e-12
3.88788e-12
3.98773e-12
4.08996e-12
4.19463e-12
4.30178e-12
4.41147e-12
4.52376e-12
4.6387e-12
4.75635e-12
4.87676e-12
4.99999e-12
5.1261e-12
5.25515e-12
5.3872e-12
5.52232e-12
5.66057e-12
5.80201e-12
5.9467e-12
6.09472e-12
6.24613e-12
6.40101e-12
6.55941e-12
6.72142e-12
6.8871e-12
7.05653e-12
7.22979e-12
7.40694e-12
7.58806e-12
7.77325e-12
7.96256e-12
8.15609e-12
8.35391e-12
8.55612e-12
8.76279e-12
8.974e-12
9.18985e-12
9.41043e-12
9.63582e-12
9.86612e-12
1.01014e-11
1.03418e-11
1.05874e-11
1.08382e-11
1.10944e-11
1.13561e-11
1.16234e-11
1.18964e-11
1.21751e-11
1.24597e-11
1.27503e-11
1.3047e-11
1.33499e-11
1.36591e-11
1.39748e-11
1.4297e-11
1.46258e-11
1.49613e-11
1.53038e-11
1.56532e-11
1.60097e-11
1.63735e-11
1.67446e-11
1.71232e-11
1.75093e-11
1.79032e-11
1.83049e-11
1.87145e-11
1.91323e-11
1.95582e-11
1.99925e-11
2.04352e-11
2.08865e-11
2.13465e-11
2.18153e-11
2.22932e-11
2.27801e-11
2.32762e-11
2.37817e-11
2.42966e-11
2.48212e-11
2.53554e-11
2.58996e-11
2.64537e-11
2.70178e-11
2.75922e-11
2.81769e-11
2.87721e-11
2.93778e-11
2.99941e-11
3.06213e-11
3.12592e-11
3.19081e-11
3.25681e-11
3.32391e-11
3.39214e-11
3.46149e-11
3.53197e-11
3.60359e-11
3.67635e-11
3.75025e-11
3.82529e-11
3.90148e-11
3.9788e-11
4.05727e-11
4.13686e-11
4.21757e-11
4.2994e-11
4.38233e-11
4.46634e-11
4.55142e-11
4.63754e-11
4.72467e-11
4.81279e-11
4.90187e-11
4.99185e-11
5.0827e-11
5.17436e-11
5.26679e-11
5.3599e-11
5.45363e-11
5.5479e-11
5.64262e-11
5.73769e-11
5.83299e-11
5.9284e-11
6.02379e-11
6.11899e-11
6.21385e-11
6.30819e-11
6.40178e-11
6.49442e-11
6.58585e-11
6.6758e-11
6.76398e-11
6.85006e-11
6.93368e-11
7.01445e-11
7.09194e-11
7.16568e-11
7.23516e-11
7.29982e-11
7.35906e-11
7.41223e-11
7.45861e-11
7.49744e-11
7.52792e-11
7.54917e-11
7.56028e-11
8.79369e-18
2.81975e-17
4.95339e-17
7.29274e-17
9.84897e-17
1.26317e-16
1.56502e-16
1.89143e-16
2.24347e-16
2.6223e-16
3.02914e-16
3.46532e-16
3.93222e-16
4.43126e-16
4.96392e-16
5.53174e-16
6.13626e-16
6.77909e-16
7.46187e-16
8.18626e-16
8.95398e-16
9.76678e-16
1.06265e-15
1.15348e-15
1.24938e-15
1.35052e-15
1.45711e-15
1.56934e-15
1.68742e-15
1.81157e-15
1.94199e-15
2.07891e-15
2.22255e-15
2.37315e-15
2.53094e-15
2.69615e-15
2.86905e-15
3.04989e-15
3.23892e-15
3.43642e-15
3.64265e-15
3.8579e-15
4.08245e-15
4.3166e-15
4.56065e-15
4.81491e-15
5.07969e-15
5.35533e-15
5.64215e-15
5.94049e-15
6.25071e-15
6.57317e-15
6.90823e-15
7.25627e-15
7.61768e-15
7.99287e-15
8.38223e-15
8.78619e-15
9.20518e-15
9.63964e-15
1.009e-14
1.05568e-14
1.10404e-14
1.15415e-14
1.20603e-14
1.25976e-14
1.31538e-14
1.37294e-14
1.43251e-14
1.49414e-14
1.55789e-14
1.62382e-14
1.69199e-14
1.76247e-14
1.83533e-14
1.91063e-14
1.98844e-14
2.06883e-14
2.15188e-14
2.23767e-14
2.32627e-14
2.41776e-14
2.51222e-14
2.60975e-14
2.71042e-14
2.81432e-14
2.92155e-14
3.03221e-14
3.14638e-14
3.26418e-14
3.38569e-14
3.51104e-14
3.64032e-14
3.77364e-14
3.91113e-14
4.0529e-14
4.19907e-14
4.34977e-14
4.50512e-14
4.66525e-14
4.83031e-14
5.00042e-14
5.17573e-14
5.3564e-14
5.54256e-14
5.73438e-14
5.932e-14
6.13561e-14
6.34536e-14
6.56143e-14
6.78399e-14
7.01323e-14
7.24933e-14
7.49249e-14
7.74291e-14
8.00078e-14
8.26632e-14
8.53973e-14
8.82125e-14
9.1111e-14
9.4095e-14
9.7167e-14
1.00329e-13
1.03585e-13
1.06936e-13
1.10385e-13
1.13935e-13
1.17589e-13
1.21349e-13
1.25219e-13
1.29201e-13
1.33299e-13
1.37516e-13
1.41855e-13
1.46319e-13
1.50913e-13
1.55639e-13
1.60501e-13
1.65503e-13
1.70649e-13
1.75942e-13
1.81387e-13
1.86988e-13
1.92749e-13
1.98674e-13
2.04769e-13
2.11036e-13
2.17482e-13
2.24112e-13
2.30929e-13
2.37939e-13
2.45148e-13
2.5256e-13
2.60181e-13
2.68018e-13
2.76075e-13
2.84358e-13
2.92874e-13
3.01629e-13
3.10628e-13
3.1988e-13
3.2939e-13
3.39166e-13
3.49214e-13
3.59541e-13
3.70156e-13
3.81065e-13
3.92276e-13
4.03798e-13
4.15638e-13
4.27806e-13
4.40309e-13
4.53156e-13
4.66357e-13
4.7992e-13
4.93855e-13
5.08172e-13
5.22881e-13
5.37991e-13
5.53514e-13
5.69459e-13
5.85839e-13
6.02663e-13
6.19944e-13
6.37693e-13
6.55922e-13
6.74644e-13
6.9387e-13
7.13615e-13
7.33891e-13
7.54711e-13
7.7609e-13
7.98041e-13
8.20579e-13
8.43719e-13
8.67476e-13
8.91865e-13
9.16903e-13
9.42605e-13
9.68988e-13
9.96069e-13
1.02387e-12
1.0524e-12
1.08168e-12
1.11173e-12
1.14257e-12
1.17421e-12
1.20669e-12
1.24001e-12
1.2742e-12
1.30929e-12
1.34528e-12
1.38221e-12
1.42009e-12
1.45896e-12
1.49882e-12
1.53972e-12
1.58166e-12
1.62469e-12
1.66881e-12
1.71407e-12
1.76048e-12
1.80807e-12
1.85688e-12
1.90692e-12
1.95823e-12
2.01084e-12
2.06478e-12
2.12008e-12
2.17677e-12
2.23489e-12
2.29446e-12
2.35552e-12
2.41811e-12
2.48225e-12
2.54799e-12
2.61537e-12
2.68441e-12
2.75515e-12
2.82765e-12
2.90192e-12
2.97803e-12
3.05599e-12
3.13587e-12
3.21769e-12
3.30151e-12
3.38737e-12
3.47531e-12
3.56537e-12
3.65761e-12
3.75208e-12
3.84881e-12
3.94787e-12
4.0493e-12
4.15315e-12
4.25947e-12
4.36833e-12
4.47976e-12
4.59383e-12
4.7106e-12
4.83011e-12
4.95243e-12
5.07763e-12
5.20574e-12
5.33685e-12
5.47101e-12
5.60828e-12
5.74874e-12
5.89243e-12
6.03944e-12
6.18983e-12
6.34367e-12
6.50102e-12
6.66197e-12
6.82657e-12
6.99491e-12
7.16706e-12
7.3431e-12
7.5231e-12
7.70714e-12
7.89531e-12
8.08767e-12
8.28432e-12
8.48534e-12
8.69081e-12
8.90082e-12
9.11545e-12
9.33479e-12
9.55894e-12
9.78799e-12
1.0022e-11
1.02611e-11
1.05054e-11
1.0755e-11
1.10099e-11
1.12703e-11
1.15363e-11
1.18079e-11
1.20853e-11
1.23686e-11
1.26579e-11
1.29532e-11
1.32548e-11
1.35626e-11
1.38769e-11
1.41977e-11
1.45252e-11
1.48594e-11
1.52005e-11
1.55486e-11
1.59037e-11
1.62662e-11
1.66359e-11
1.70131e-11
1.7398e-11
1.77905e-11
1.81909e-11
1.85992e-11
1.90157e-11
1.94403e-11
1.98733e-11
2.03148e-11
2.07649e-11
2.12237e-11
2.16914e-11
2.21681e-11
2.26539e-11
2.31489e-11
2.36533e-11
2.41673e-11
2.46909e-11
2.52242e-11
2.57675e-11
2.63208e-11
2.68842e-11
2.74579e-11
2.8042e-11
2.86366e-11
2.92418e-11
2.98578e-11
3.04846e-11
3.11224e-11
3.17712e-11
3.24312e-11
3.31024e-11
3.3785e-11
3.44789e-11
3.51844e-11
3.59013e-11
3.66299e-11
3.73701e-11
3.81219e-11
3.88853e-11
3.96605e-11
4.04472e-11
4.12456e-11
4.20555e-11
4.28769e-11
4.37097e-11
4.45537e-11
4.54088e-11
4.62748e-11
4.71515e-11
4.80386e-11
4.89358e-11
4.98428e-11
5.07592e-11
5.16845e-11
5.26182e-11
5.35597e-11
5.45085e-11
5.54637e-11
5.64245e-11
5.73901e-11
5.83594e-11
5.93314e-11
6.03047e-11
6.1278e-11
6.22498e-11
6.32183e-11
6.41819e-11
6.51383e-11
6.60854e-11
6.70206e-11
6.79413e-11
6.88444e-11
6.97267e-11
7.05845e-11
7.14139e-11
7.22106e-11
7.29697e-11
7.36862e-11
7.43543e-11
7.49677e-11
7.55197e-11
7.60027e-11
7.64087e-11
7.67289e-11
7.69534e-11
7.70715e-11
8.64887e-18
2.77238e-17
4.8672e-17
7.16158e-17
9.66821e-17
1.23988e-16
1.53647e-16
1.85773e-16
2.20482e-16
2.57896e-16
2.98144e-16
3.41357e-16
3.87673e-16
4.37236e-16
4.90191e-16
5.4669e-16
6.06887e-16
6.70943e-16
7.39019e-16
8.11284e-16
8.87908e-16
9.69068e-16
1.05494e-15
1.14572e-15
1.24158e-15
1.34272e-15
1.44935e-15
1.56166e-15
1.67985e-15
1.80415e-15
1.93478e-15
2.07194e-15
2.21588e-15
2.36683e-15
2.52503e-15
2.69072e-15
2.86415e-15
3.04559e-15
3.23529e-15
3.43353e-15
3.64059e-15
3.85674e-15
4.08229e-15
4.31752e-15
4.56275e-15
4.81829e-15
5.08445e-15
5.36157e-15
5.64999e-15
5.95005e-15
6.26211e-15
6.58653e-15
6.92369e-15
7.27396e-15
7.63775e-15
8.01545e-15
8.40749e-15
8.81428e-15
9.23626e-15
9.67389e-15
1.01276e-14
1.05979e-14
1.10853e-14
1.15902e-14
1.21132e-14
1.26547e-14
1.32154e-14
1.37958e-14
1.43965e-14
1.5018e-14
1.56609e-14
1.63259e-14
1.70136e-14
1.77246e-14
1.84597e-14
1.92195e-14
2.00046e-14
2.0816e-14
2.16542e-14
2.252e-14
2.34143e-14
2.43379e-14
2.52915e-14
2.62762e-14
2.72926e-14
2.83417e-14
2.94246e-14
3.0542e-14
3.16951e-14
3.28848e-14
3.41121e-14
3.53782e-14
3.6684e-14
3.80309e-14
3.94198e-14
4.08521e-14
4.23288e-14
4.38514e-14
4.5421e-14
4.70391e-14
4.87069e-14
5.04259e-14
5.21975e-14
5.40233e-14
5.59047e-14
5.78433e-14
5.98407e-14
6.18985e-14
6.40186e-14
6.62025e-14
6.84522e-14
7.07694e-14
7.31561e-14
7.56141e-14
7.81456e-14
8.07525e-14
8.3437e-14
8.62012e-14
8.90474e-14
9.19778e-14
9.49948e-14
9.81008e-14
1.01298e-13
1.0459e-13
1.07978e-13
1.11466e-13
1.15055e-13
1.1875e-13
1.22552e-13
1.26465e-13
1.30492e-13
1.34636e-13
1.38901e-13
1.43289e-13
1.47804e-13
1.52449e-13
1.57229e-13
1.62146e-13
1.67205e-13
1.72409e-13
1.77762e-13
1.83269e-13
1.88934e-13
1.94761e-13
2.00754e-13
2.06918e-13
2.13258e-13
2.19777e-13
2.26483e-13
2.33378e-13
2.40469e-13
2.4776e-13
2.55258e-13
2.62967e-13
2.70894e-13
2.79044e-13
2.87423e-13
2.96037e-13
3.04893e-13
3.13997e-13
3.23356e-13
3.32977e-13
3.42866e-13
3.5303e-13
3.63478e-13
3.74216e-13
3.85252e-13
3.96594e-13
4.0825e-13
4.20229e-13
4.32539e-13
4.45188e-13
4.58185e-13
4.7154e-13
4.85262e-13
4.99361e-13
5.13846e-13
5.28727e-13
5.44015e-13
5.5972e-13
5.75853e-13
5.92425e-13
6.09448e-13
6.26932e-13
6.44891e-13
6.63335e-13
6.82278e-13
7.01732e-13
7.2171e-13
7.42225e-13
7.63292e-13
7.84924e-13
8.07136e-13
8.29941e-13
8.53356e-13
8.77396e-13
9.02075e-13
9.2741e-13
9.53419e-13
9.80116e-13
1.00752e-12
1.03565e-12
1.06452e-12
1.09415e-12
1.12456e-12
1.15577e-12
1.18779e-12
1.22066e-12
1.25438e-12
1.28898e-12
1.32449e-12
1.36091e-12
1.39828e-12
1.43662e-12
1.47596e-12
1.5163e-12
1.55769e-12
1.60014e-12
1.64368e-12
1.68834e-12
1.73414e-12
1.78112e-12
1.82929e-12
1.87868e-12
1.92933e-12
1.98127e-12
2.03452e-12
2.08911e-12
2.14508e-12
2.20246e-12
2.26129e-12
2.32158e-12
2.38339e-12
2.44674e-12
2.51167e-12
2.57821e-12
2.64641e-12
2.71629e-12
2.78791e-12
2.86129e-12
2.93648e-12
3.01351e-12
3.09244e-12
3.17329e-12
3.25613e-12
3.34098e-12
3.42789e-12
3.51691e-12
3.60809e-12
3.70147e-12
3.7971e-12
3.89503e-12
3.99531e-12
4.098e-12
4.20313e-12
4.31078e-12
4.42098e-12
4.5338e-12
4.64929e-12
4.76751e-12
4.88851e-12
5.01236e-12
5.13911e-12
5.26883e-12
5.40157e-12
5.53741e-12
5.6764e-12
5.81861e-12
5.96411e-12
6.11296e-12
6.26524e-12
6.42101e-12
6.58034e-12
6.74331e-12
6.90999e-12
7.08045e-12
7.25477e-12
7.43303e-12
7.61531e-12
7.80168e-12
7.99222e-12
8.18702e-12
8.38617e-12
8.58973e-12
8.79781e-12
9.01049e-12
9.22785e-12
9.44999e-12
9.677e-12
9.90896e-12
1.0146e-11
1.03881e-11
1.06356e-11
1.08883e-11
1.11465e-11
1.14102e-11
1.16796e-11
1.19547e-11
1.22357e-11
1.25226e-11
1.28156e-11
1.31148e-11
1.34203e-11
1.37321e-11
1.40504e-11
1.43754e-11
1.47071e-11
1.50456e-11
1.53912e-11
1.57438e-11
1.61036e-11
1.64707e-11
1.68453e-11
1.72274e-11
1.76173e-11
1.80149e-11
1.84206e-11
1.88343e-11
1.92561e-11
1.96864e-11
2.01251e-11
2.05724e-11
2.10284e-11
2.14932e-11
2.19671e-11
2.24501e-11
2.29423e-11
2.34439e-11
2.3955e-11
2.44758e-11
2.50063e-11
2.55468e-11
2.60973e-11
2.66579e-11
2.72289e-11
2.78103e-11
2.84022e-11
2.90048e-11
2.96182e-11
3.02425e-11
3.08778e-11
3.15242e-11
3.21818e-11
3.28507e-11
3.35311e-11
3.4223e-11
3.49264e-11
3.56415e-11
3.63683e-11
3.71069e-11
3.78573e-11
3.86195e-11
3.93936e-11
4.01795e-11
4.09772e-11
4.17868e-11
4.26081e-11
4.34411e-11
4.42857e-11
4.51418e-11
4.60091e-11
4.68876e-11
4.77769e-11
4.86769e-11
4.95873e-11
5.05076e-11
5.14376e-11
5.23767e-11
5.33245e-11
5.42803e-11
5.52436e-11
5.62136e-11
5.71895e-11
5.81704e-11
5.91552e-11
6.0143e-11
6.11323e-11
6.21219e-11
6.31103e-11
6.40957e-11
6.50764e-11
6.60501e-11
6.70148e-11
6.79679e-11
6.89067e-11
6.98282e-11
7.0729e-11
7.16057e-11
7.24541e-11
7.32699e-11
7.40483e-11
7.4784e-11
7.54712e-11
7.61035e-11
7.66739e-11
7.71744e-11
7.75966e-11
7.79308e-11
7.81663e-11
7.8291e-11
8.52754e-18
2.73268e-17
4.79504e-17
7.05141e-17
9.51504e-17
1.21991e-16
1.51166e-16
1.82804e-16
2.17034e-16
2.53987e-16
2.93795e-16
3.36595e-16
3.82525e-16
4.31727e-16
4.84347e-16
5.40535e-16
6.00444e-16
6.64234e-16
7.32065e-16
8.04104e-16
8.80523e-16
9.61497e-16
1.04721e-15
1.13784e-15
1.23358e-15
1.33462e-15
1.44117e-15
1.55343e-15
1.67161e-15
1.79592e-15
1.92658e-15
2.06383e-15
2.20788e-15
2.35898e-15
2.51737e-15
2.68329e-15
2.85701e-15
3.03877e-15
3.22886e-15
3.42754e-15
3.63509e-15
3.8518e-15
4.07797e-15
4.31389e-15
4.55987e-15
4.81624e-15
5.08331e-15
5.36142e-15
5.65091e-15
5.95212e-15
6.26543e-15
6.59119e-15
6.92979e-15
7.28161e-15
7.64705e-15
8.02651e-15
8.42042e-15
8.82921e-15
9.25331e-15
9.69318e-15
1.01493e-14
1.06221e-14
1.11121e-14
1.16198e-14
1.21458e-14