/*--------------------------------*- C++ -*----------------------------------*\
  =========                 |
  \\      /  F ield         | OpenFOAM: The Open Source CFD Toolbox
   \\    /   O peration     | Website:  https://openfoam.org
    \\  /    A nd           | Version:  dev
     \\/     M anipulation  |
\*---------------------------------------------------------------------------*/
FoamFile
{
    format      ascii;
    class       volScalarField;
    location    "0.72";
    object      Exp1;
}
// * * * * * * * * * * * * * * * * * * * * * * * * * * * * * * * * * * * * * //

dimensions      [0 0 0 0 0 0 0];

internalField   uniform 0;

boundaryField
{
    frontAndBack
    {
        type            empty;
    }
    inlet
    {
        type            calculated;
        value           uniform 0;
    }
    outlet
    {
        type            calculated;
        value           uniform 0;
    }
    substrate
    {
        type            calculated;
        value           nonuniform List<scalar> 
400
(
3.66296e-18
1.16667e-17
2.04721e-17
3.00424e-17
4.03837e-17
5.15322e-17
6.35229e-17
7.63925e-17
9.01823e-17
1.04937e-16
1.20705e-16
1.37535e-16
1.55479e-16
1.74592e-16
1.94928e-16
2.16542e-16
2.39492e-16
2.63836e-16
2.89633e-16
3.16942e-16
3.45826e-16
3.76345e-16
4.08562e-16
4.42543e-16
4.78352e-16
5.16057e-16
5.55726e-16
5.97427e-16
6.41233e-16
6.87216e-16
7.3545e-16
7.86012e-16
8.38979e-16
8.9443e-16
9.52448e-16
1.01311e-15
1.07652e-15
1.14274e-15
1.21188e-15
1.28401e-15
1.35925e-15
1.43768e-15
1.5194e-15
1.60451e-15
1.69312e-15
1.78533e-15
1.88125e-15
1.98099e-15
2.08467e-15
2.19241e-15
2.30432e-15
2.42052e-15
2.54116e-15
2.66634e-15
2.79622e-15
2.93092e-15
3.07058e-15
3.21536e-15
3.36539e-15
3.52084e-15
3.68185e-15
3.84859e-15
4.02122e-15
4.19992e-15
4.38485e-15
4.5762e-15
4.77414e-15
4.97887e-15
5.19058e-15
5.40948e-15
5.63576e-15
5.86963e-15
6.11132e-15
6.36104e-15
6.61903e-15
6.88551e-15
7.16074e-15
7.44495e-15
7.7384e-15
8.04136e-15
8.35409e-15
8.67687e-15
9.00999e-15
9.35374e-15
9.70841e-15
1.00743e-14
1.04518e-14
1.08411e-14
1.12427e-14
1.16568e-14
1.20839e-14
1.25242e-14
1.29782e-14
1.34462e-14
1.39286e-14
1.44259e-14
1.49385e-14
1.54667e-14
1.60111e-14
1.65721e-14
1.71501e-14
1.77456e-14
1.83591e-14
1.89912e-14
1.96423e-14
2.0313e-14
2.10038e-14
2.17153e-14
2.24481e-14
2.32027e-14
2.39798e-14
2.478e-14
2.56039e-14
2.64522e-14
2.73256e-14
2.82248e-14
2.91505e-14
3.01034e-14
3.10842e-14
3.20939e-14
3.31331e-14
3.42026e-14
3.53034e-14
3.64362e-14
3.7602e-14
3.88017e-14
4.00361e-14
4.13063e-14
4.26133e-14
4.3958e-14
4.53414e-14
4.67647e-14
4.8229e-14
4.97353e-14
5.12847e-14
5.28786e-14
5.4518e-14
5.62043e-14
5.79386e-14
5.97224e-14
6.15569e-14
6.34435e-14
6.53836e-14
6.73786e-14
6.94301e-14
7.15396e-14
7.37086e-14
7.59387e-14
7.82316e-14
8.05889e-14
8.30124e-14
8.55038e-14
8.80649e-14
9.06977e-14
9.34039e-14
9.61855e-14
9.90447e-14
1.01983e-13
1.05003e-13
1.08107e-13
1.11297e-13
1.14575e-13
1.17944e-13
1.21406e-13
1.24962e-13
1.28617e-13
1.32372e-13
1.3623e-13
1.40194e-13
1.44266e-13
1.48449e-13
1.52746e-13
1.57161e-13
1.61695e-13
1.66352e-13
1.71136e-13
1.76049e-13
1.81095e-13
1.86278e-13
1.916e-13
1.97065e-13
2.02677e-13
2.08439e-13
2.14356e-13
2.20431e-13
2.26669e-13
2.33072e-13
2.39647e-13
2.46395e-13
2.53323e-13
2.60435e-13
2.67735e-13
2.75227e-13
2.82917e-13
2.90809e-13
2.98909e-13
3.07221e-13
3.15751e-13
3.24504e-13
3.33486e-13
3.42701e-13
3.52156e-13
3.61857e-13
3.71809e-13
3.82019e-13
3.92492e-13
4.03235e-13
4.14255e-13
4.25558e-13
4.37151e-13
4.4904e-13
4.61233e-13
4.73737e-13
4.8656e-13
4.99708e-13
5.13189e-13
5.27012e-13
5.41184e-13
5.55713e-13
5.70607e-13
5.85876e-13
6.01527e-13
6.17569e-13
6.34012e-13
6.50864e-13
6.68136e-13
6.85835e-13
7.03973e-13
7.22559e-13
7.41603e-13
7.61115e-13
7.81107e-13
8.01588e-13
8.22569e-13
8.44062e-13
8.66078e-13
8.88629e-13
9.11726e-13
9.35381e-13
9.59607e-13
9.84415e-13
1.00982e-12
1.03583e-12
1.06247e-12
1.08973e-12
1.11765e-12
1.14623e-12
1.17549e-12
1.20543e-12
1.23609e-12
1.26746e-12
1.29957e-12
1.33243e-12
1.36605e-12
1.40046e-12
1.43567e-12
1.47169e-12
1.50854e-12
1.54624e-12
1.58481e-12
1.62426e-12
1.66462e-12
1.70589e-12
1.7481e-12
1.79127e-12
1.83541e-12
1.88055e-12
1.92671e-12
1.97389e-12
2.02214e-12
2.07146e-12
2.12188e-12
2.17341e-12
2.22609e-12
2.27992e-12
2.33495e-12
2.39117e-12
2.44863e-12
2.50733e-12
2.56732e-12
2.6286e-12
2.69121e-12
2.75516e-12
2.82049e-12
2.88721e-12
2.95536e-12
3.02496e-12
3.09603e-12
3.16861e-12
3.24271e-12
3.31837e-12
3.39562e-12
3.47447e-12
3.55497e-12
3.63713e-12
3.721e-12
3.80658e-12
3.89393e-12
3.98306e-12
4.074e-12
4.16679e-12
4.26146e-12
4.35804e-12
4.45656e-12
4.55705e-12
4.65954e-12
4.76407e-12
4.87067e-12
4.97937e-12
5.09021e-12
5.20321e-12
5.31842e-12
5.43586e-12
5.55557e-12
5.67759e-12
5.80195e-12
5.92868e-12
6.05782e-12
6.18941e-12
6.32347e-12
6.46005e-12
6.59919e-12
6.7409e-12
6.88524e-12
7.03224e-12
7.18193e-12
7.33434e-12
7.48952e-12
7.6475e-12
7.80831e-12
7.97199e-12
8.13857e-12
8.30809e-12
8.48057e-12
8.65606e-12
8.83458e-12
9.01617e-12
9.20086e-12
9.38867e-12
9.57963e-12
9.77378e-12
9.97113e-12
1.01717e-11
1.03756e-11
1.05827e-11
1.07931e-11
1.10068e-11
1.12239e-11
1.14443e-11
1.1668e-11
1.18951e-11
1.21255e-11
1.23593e-11
1.25964e-11
1.28369e-11
1.30807e-11
1.33277e-11
1.3578e-11
1.38315e-11
1.40882e-11
1.4348e-11
1.46109e-11
1.48767e-11
1.51454e-11
1.54169e-11
1.5691e-11
1.59678e-11
1.62469e-11
1.65282e-11
1.68116e-11
1.70968e-11
1.73836e-11
1.76718e-11
1.79611e-11
1.82511e-11
1.85415e-11
1.88319e-11
1.9122e-11
1.94111e-11
1.96988e-11
1.99845e-11
2.02676e-11
2.05474e-11
2.08231e-11
2.10938e-11
2.13587e-11
2.16168e-11
2.18669e-11
2.21078e-11
2.23382e-11
2.25568e-11
2.27619e-11
2.29518e-11
2.31249e-11
2.32792e-11
2.34127e-11
2.35234e-11
2.36091e-11
2.36679e-11
2.3698e-11
)
;
    }
    Wall
    {
        type            calculated;
        value           nonuniform List<scalar> 
400
(
3.66289e-18
1.16665e-17
2.04717e-17
3.00417e-17
4.03828e-17
5.1531e-17
6.35212e-17
7.63904e-17
9.01797e-17
1.04934e-16
1.20701e-16
1.3753e-16
1.55474e-16
1.74586e-16
1.9492e-16
2.16534e-16
2.39483e-16
2.63825e-16
2.89621e-16
3.16929e-16
3.45811e-16
3.76329e-16
4.08545e-16
4.42525e-16
4.78333e-16
5.16036e-16
5.55703e-16
5.97403e-16
6.41207e-16
6.87189e-16
7.35421e-16
7.85982e-16
8.38947e-16
8.94397e-16
9.52413e-16
1.01308e-15
1.07648e-15
1.1427e-15
1.21183e-15
1.28397e-15
1.3592e-15
1.43763e-15
1.51934e-15
1.60445e-15
1.69306e-15
1.78527e-15
1.88119e-15
1.98093e-15
2.0846e-15
2.19234e-15
2.30424e-15
2.42045e-15
2.54107e-15
2.66626e-15
2.79613e-15
2.93082e-15
3.07049e-15
3.21526e-15
3.36529e-15
3.52073e-15
3.68174e-15
3.84847e-15
4.0211e-15
4.19979e-15
4.38472e-15
4.57606e-15
4.774e-15
4.97872e-15
5.19043e-15
5.40932e-15
5.63559e-15
5.86946e-15
6.11115e-15
6.36086e-15
6.61884e-15
6.88532e-15
7.16053e-15
7.44474e-15
7.73818e-15
8.04113e-15
8.35386e-15
8.67663e-15
9.00974e-15
9.35347e-15
9.70814e-15
1.0074e-14
1.04515e-14
1.08408e-14
1.12424e-14
1.16565e-14
1.20835e-14
1.25238e-14
1.29778e-14
1.34458e-14
1.39283e-14
1.44255e-14
1.49381e-14
1.54663e-14
1.60107e-14
1.65716e-14
1.71496e-14
1.77451e-14
1.83586e-14
1.89907e-14
1.96418e-14
2.03124e-14
2.10032e-14
2.17147e-14
2.24475e-14
2.32021e-14
2.39791e-14
2.47793e-14
2.56032e-14
2.64515e-14
2.73249e-14
2.8224e-14
2.91497e-14
3.01026e-14
3.10834e-14
3.2093e-14
3.31322e-14
3.42017e-14
3.53024e-14
3.64353e-14
3.7601e-14
3.88006e-14
4.00351e-14
4.13052e-14
4.26122e-14
4.39568e-14
4.53402e-14
4.67635e-14
4.82277e-14
4.97339e-14
5.12834e-14
5.28772e-14
5.45166e-14
5.62028e-14
5.79371e-14
5.97208e-14
6.15553e-14
6.34418e-14
6.53819e-14
6.73769e-14
6.94284e-14
7.15378e-14
7.37067e-14
7.59368e-14
7.82296e-14
8.05869e-14
8.30103e-14
8.55016e-14
8.80627e-14
9.06954e-14
9.34015e-14
9.61831e-14
9.90421e-14
1.01981e-13
1.05001e-13
1.08105e-13
1.11294e-13
1.14572e-13
1.17941e-13
1.21402e-13
1.24959e-13
1.28614e-13
1.32369e-13
1.36227e-13
1.4019e-13
1.44262e-13
1.48445e-13
1.52742e-13
1.57157e-13
1.61691e-13
1.66348e-13
1.71132e-13
1.76045e-13
1.81091e-13
1.86273e-13
1.91595e-13
1.9706e-13
2.02672e-13
2.08434e-13
2.14351e-13
2.20426e-13
2.26663e-13
2.33066e-13
2.3964e-13
2.46389e-13
2.53317e-13
2.60428e-13
2.67728e-13
2.7522e-13
2.8291e-13
2.90802e-13
2.98902e-13
3.07214e-13
3.15743e-13
3.24496e-13
3.33477e-13
3.42693e-13
3.52148e-13
3.61848e-13
3.718e-13
3.82009e-13
3.92482e-13
4.03225e-13
4.14245e-13
4.25547e-13
4.3714e-13
4.49029e-13
4.61222e-13
4.73726e-13
4.86548e-13
4.99696e-13
5.13177e-13
5.26999e-13
5.4117e-13
5.55699e-13
5.70593e-13
5.85861e-13
6.01512e-13
6.17554e-13
6.33996e-13
6.50848e-13
6.68119e-13
6.85818e-13
7.03956e-13
7.22541e-13
7.41585e-13
7.61097e-13
7.81088e-13
8.01568e-13
8.22549e-13
8.44042e-13
8.66057e-13
8.88607e-13
9.11703e-13
9.35358e-13
9.59583e-13
9.84391e-13
1.00979e-12
1.03581e-12
1.06244e-12
1.08971e-12
1.11762e-12
1.1462e-12
1.17546e-12
1.20541e-12
1.23606e-12
1.26743e-12
1.29954e-12
1.33239e-12
1.36602e-12
1.40043e-12
1.43563e-12
1.47165e-12
1.5085e-12
1.54621e-12
1.58477e-12
1.62422e-12
1.66458e-12
1.70585e-12
1.74806e-12
1.79122e-12
1.83537e-12
1.88051e-12
1.92666e-12
1.97385e-12
2.02209e-12
2.07141e-12
2.12183e-12
2.17336e-12
2.22604e-12
2.27987e-12
2.33489e-12
2.39111e-12
2.44857e-12
2.50727e-12
2.56726e-12
2.62854e-12
2.69114e-12
2.75509e-12
2.82042e-12
2.88714e-12
2.95529e-12
3.02489e-12
3.09596e-12
3.16853e-12
3.24263e-12
3.31829e-12
3.39554e-12
3.47439e-12
3.55488e-12
3.63705e-12
3.72091e-12
3.80649e-12
3.89383e-12
3.98296e-12
4.0739e-12
4.16669e-12
4.26136e-12
4.35794e-12
4.45645e-12
4.55694e-12
4.65943e-12
4.76396e-12
4.87056e-12
4.97925e-12
5.09009e-12
5.20309e-12
5.31829e-12
5.43573e-12
5.55544e-12
5.67746e-12
5.80181e-12
5.92854e-12
6.05768e-12
6.18927e-12
6.32333e-12
6.45991e-12
6.59903e-12
6.74075e-12
6.88509e-12
7.03208e-12
7.18176e-12
7.33418e-12
7.48935e-12
7.64733e-12
7.80814e-12
7.97181e-12
8.13839e-12
8.3079e-12
8.48039e-12
8.65587e-12
8.83439e-12
9.01597e-12
9.20065e-12
9.38846e-12
9.57942e-12
9.77356e-12
9.97091e-12
1.01715e-11
1.03753e-11
1.05824e-11
1.07929e-11
1.10066e-11
1.12236e-11
1.1444e-11
1.16677e-11
1.18948e-11
1.21253e-11
1.2359e-11
1.25962e-11
1.28366e-11
1.30804e-11
1.33274e-11
1.35777e-11
1.38312e-11
1.40879e-11
1.43477e-11
1.46106e-11
1.48764e-11
1.51451e-11
1.54166e-11
1.56907e-11
1.59674e-11
1.62465e-11
1.65279e-11
1.68112e-11
1.70965e-11
1.73833e-11
1.76715e-11
1.79607e-11
1.82507e-11
1.85411e-11
1.88316e-11
1.91216e-11
1.94107e-11
1.96984e-11
1.99841e-11
2.02672e-11
2.0547e-11
2.08227e-11
2.10934e-11
2.13583e-11
2.16164e-11
2.18665e-11
2.21074e-11
2.23378e-11
2.25564e-11
2.27615e-11
2.29515e-11
2.31245e-11
2.32788e-11
2.34123e-11
2.3523e-11
2.36088e-11
2.36676e-11
2.36977e-11
)
;
    }
}


// ************************************************************************* //
