/*--------------------------------*- C++ -*----------------------------------*\
  =========                 |
  \\      /  F ield         | OpenFOAM: The Open Source CFD Toolbox
   \\    /   O peration     | Website:  https://openfoam.org
    \\  /    A nd           | Version:  dev
     \\/     M anipulation  |
\*---------------------------------------------------------------------------*/
FoamFile
{
    format      ascii;
    class       volScalarField;
    location    "0.72";
    object      N1;
}
// * * * * * * * * * * * * * * * * * * * * * * * * * * * * * * * * * * * * * //

dimensions      [0 0 0 0 0 0 0];

internalField   nonuniform List<scalar> 
8000
(
2.78109e-17
8.86012e-17
1.55502e-16
2.28233e-16
3.06846e-16
3.91614e-16
4.82806e-16
5.80704e-16
6.85623e-16
7.97906e-16
9.1792e-16
1.04605e-15
1.18268e-15
1.32824e-15
1.48314e-15
1.64781e-15
1.82269e-15
2.00822e-15
2.20487e-15
2.41308e-15
2.63332e-15
2.86608e-15
3.11184e-15
3.37109e-15
3.64434e-15
3.93211e-15
4.2349e-15
4.55328e-15
4.88777e-15
5.23894e-15
5.60737e-15
5.99363e-15
6.39833e-15
6.82209e-15
7.26552e-15
7.72927e-15
8.21399e-15
8.72037e-15
9.24908e-15
9.80084e-15
1.03764e-14
1.09764e-14
1.16017e-14
1.22531e-14
1.29313e-14
1.36371e-14
1.43715e-14
1.51352e-14
1.59291e-14
1.67542e-14
1.76114e-14
1.85016e-14
1.94258e-14
2.0385e-14
2.13802e-14
2.24125e-14
2.3483e-14
2.45927e-14
2.57429e-14
2.69347e-14
2.81693e-14
2.94479e-14
3.07718e-14
3.21423e-14
3.35607e-14
3.50285e-14
3.65471e-14
3.81178e-14
3.97422e-14
4.14218e-14
4.31583e-14
4.49531e-14
4.6808e-14
4.87248e-14
5.0705e-14
5.27507e-14
5.48635e-14
5.70455e-14
5.92986e-14
6.16247e-14
6.40261e-14
6.65047e-14
6.90629e-14
7.17028e-14
7.44267e-14
7.72371e-14
8.01364e-14
8.3127e-14
8.62117e-14
8.93929e-14
9.26735e-14
9.60563e-14
9.95441e-14
1.0314e-13
1.06847e-13
1.10668e-13
1.14606e-13
1.18665e-13
1.22848e-13
1.27159e-13
1.31601e-13
1.36177e-13
1.40892e-13
1.4575e-13
1.50754e-13
1.55909e-13
1.61218e-13
1.66687e-13
1.72319e-13
1.7812e-13
1.84093e-13
1.90244e-13
1.96577e-13
2.03098e-13
2.09812e-13
2.16724e-13
2.2384e-13
2.31165e-13
2.38706e-13
2.46468e-13
2.54457e-13
2.62679e-13
2.71142e-13
2.79852e-13
2.88815e-13
2.98038e-13
3.07529e-13
3.17295e-13
3.27343e-13
3.37682e-13
3.48319e-13
3.59263e-13
3.70521e-13
3.82103e-13
3.94017e-13
4.06272e-13
4.18878e-13
4.31844e-13
4.4518e-13
4.58896e-13
4.73002e-13
4.87508e-13
5.02427e-13
5.17768e-13
5.33543e-13
5.49764e-13
5.66443e-13
5.83592e-13
6.01224e-13
6.19351e-13
6.37987e-13
6.57145e-13
6.7684e-13
6.97086e-13
7.17896e-13
7.39287e-13
7.61274e-13
7.83872e-13
8.07097e-13
8.30967e-13
8.55498e-13
8.80707e-13
9.06612e-13
9.33232e-13
9.60585e-13
9.8869e-13
1.01757e-12
1.04724e-12
1.07772e-12
1.10903e-12
1.1412e-12
1.17425e-12
1.2082e-12
1.24307e-12
1.27889e-12
1.31568e-12
1.35346e-12
1.39227e-12
1.43212e-12
1.47305e-12
1.51508e-12
1.55824e-12
1.60256e-12
1.64806e-12
1.69478e-12
1.74275e-12
1.792e-12
1.84256e-12
1.89446e-12
1.94774e-12
2.00243e-12
2.05857e-12
2.11619e-12
2.17533e-12
2.23603e-12
2.29832e-12
2.36225e-12
2.42785e-12
2.49517e-12
2.56424e-12
2.63511e-12
2.70783e-12
2.78244e-12
2.85897e-12
2.93749e-12
3.01804e-12
3.10066e-12
3.18542e-12
3.27234e-12
3.3615e-12
3.45294e-12
3.54671e-12
3.64288e-12
3.74149e-12
3.84261e-12
3.94629e-12
4.0526e-12
4.16159e-12
4.27333e-12
4.38788e-12
4.50531e-12
4.62568e-12
4.74905e-12
4.87551e-12
5.00512e-12
5.13795e-12
5.27408e-12
5.41357e-12
5.55651e-12
5.70297e-12
5.85304e-12
6.00679e-12
6.1643e-12
6.32567e-12
6.49097e-12
6.66029e-12
6.83372e-12
7.01136e-12
7.19329e-12
7.3796e-12
7.5704e-12
7.76578e-12
7.96583e-12
8.17067e-12
8.38039e-12
8.5951e-12
8.8149e-12
9.03991e-12
9.27022e-12
9.50597e-12
9.74725e-12
9.99419e-12
1.02469e-11
1.05055e-11
1.07701e-11
1.10409e-11
1.13179e-11
1.16014e-11
1.18913e-11
1.21879e-11
1.24914e-11
1.28017e-11
1.31191e-11
1.34438e-11
1.37758e-11
1.41153e-11
1.44624e-11
1.48174e-11
1.51803e-11
1.55514e-11
1.59307e-11
1.63185e-11
1.67148e-11
1.71199e-11
1.7534e-11
1.79571e-11
1.83895e-11
1.88314e-11
1.92829e-11
1.97443e-11
2.02156e-11
2.06971e-11
2.11889e-11
2.16914e-11
2.22045e-11
2.27287e-11
2.32639e-11
2.38105e-11
2.43687e-11
2.49386e-11
2.55205e-11
2.61146e-11
2.67211e-11
2.73402e-11
2.79721e-11
2.8617e-11
2.92753e-11
2.9947e-11
3.06325e-11
3.1332e-11
3.20456e-11
3.27737e-11
3.35165e-11
3.42742e-11
3.5047e-11
3.58353e-11
3.66392e-11
3.7459e-11
3.8295e-11
3.91475e-11
4.00166e-11
4.09026e-11
4.18058e-11
4.27265e-11
4.3665e-11
4.46214e-11
4.5596e-11
4.65893e-11
4.76013e-11
4.86323e-11
4.96828e-11
5.07528e-11
5.18427e-11
5.29528e-11
5.40834e-11
5.52346e-11
5.64068e-11
5.76003e-11
5.88153e-11
6.0052e-11
6.13109e-11
6.2592e-11
6.38957e-11
6.52223e-11
6.6572e-11
6.79449e-11
6.93415e-11
7.07619e-11
7.22063e-11
7.3675e-11
7.51681e-11
7.6686e-11
7.82286e-11
7.97964e-11
8.13893e-11
8.30076e-11
8.46513e-11
8.63206e-11
8.80156e-11
8.97363e-11
9.14828e-11
9.32551e-11
9.50531e-11
9.68768e-11
9.87261e-11
1.00601e-10
1.02501e-10
1.04426e-10
1.06376e-10
1.0835e-10
1.10348e-10
1.1237e-10
1.14414e-10
1.1648e-10
1.18568e-10
1.20677e-10
1.22805e-10
1.24952e-10
1.27115e-10
1.29295e-10
1.31489e-10
1.33695e-10
1.35911e-10
1.38136e-10
1.40366e-10
1.426e-10
1.44833e-10
1.47064e-10
1.49287e-10
1.515e-10
1.53697e-10
1.55875e-10
1.58026e-10
1.60147e-10
1.62229e-10
1.64266e-10
1.66251e-10
1.68174e-10
1.70027e-10
1.718e-10
1.7348e-10
1.75058e-10
1.76519e-10
1.7785e-10
1.79037e-10
1.80063e-10
1.80914e-10
1.81574e-10
1.82026e-10
1.82257e-10
2.7244e-17
8.73382e-17
1.53674e-16
2.26157e-16
3.04782e-16
3.89732e-16
4.81242e-16
5.79584e-16
6.85069e-16
7.98041e-16
9.1887e-16
1.04794e-15
1.18567e-15
1.33247e-15
1.48877e-15
1.65501e-15
1.83164e-15
2.01911e-15
2.2179e-15
2.42848e-15
2.65132e-15
2.88692e-15
3.13578e-15
3.3984e-15
3.67531e-15
3.96703e-15
4.27411e-15
4.5971e-15
4.93657e-15
5.29309e-15
5.66725e-15
6.05966e-15
6.47094e-15
6.90172e-15
7.35265e-15
7.82439e-15
8.31762e-15
8.83304e-15
9.37136e-15
9.9333e-15
1.05196e-14
1.11311e-14
1.17685e-14
1.24326e-14
1.31243e-14
1.38444e-14
1.45937e-14
1.53732e-14
1.61837e-14
1.70263e-14
1.79018e-14
1.88113e-14
1.97557e-14
2.07361e-14
2.17535e-14
2.28091e-14
2.39039e-14
2.50391e-14
2.62159e-14
2.74355e-14
2.86991e-14
3.0008e-14
3.13636e-14
3.27671e-14
3.42199e-14
3.57236e-14
3.72794e-14
3.8889e-14
4.05538e-14
4.22755e-14
4.40557e-14
4.5896e-14
4.77982e-14
4.9764e-14
5.17953e-14
5.38938e-14
5.60616e-14
5.83005e-14
6.06126e-14
6.30001e-14
6.54649e-14
6.80094e-14
7.06357e-14
7.33462e-14
7.61433e-14
7.90294e-14
8.20071e-14
8.50789e-14
8.82474e-14
9.15155e-14
9.48859e-14
9.83615e-14
1.01945e-13
1.0564e-13
1.0945e-13
1.13377e-13
1.17425e-13
1.21597e-13
1.25897e-13
1.30328e-13
1.34894e-13
1.396e-13
1.44448e-13
1.49442e-13
1.54588e-13
1.59888e-13
1.65349e-13
1.70972e-13
1.76765e-13
1.8273e-13
1.88874e-13
1.95201e-13
2.01715e-13
2.08423e-13
2.15329e-13
2.2244e-13
2.29761e-13
2.37297e-13
2.45055e-13
2.53041e-13
2.6126e-13
2.69721e-13
2.78428e-13
2.8739e-13
2.96613e-13
3.06104e-13
3.1587e-13
3.2592e-13
3.36261e-13
3.46901e-13
3.57848e-13
3.6911e-13
3.80697e-13
3.92617e-13
4.04879e-13
4.17493e-13
4.30467e-13
4.43813e-13
4.57539e-13
4.71657e-13
4.86176e-13
5.01109e-13
5.16465e-13
5.32256e-13
5.48495e-13
5.65193e-13
5.82362e-13
6.00015e-13
6.18166e-13
6.36827e-13
6.56012e-13
6.75735e-13
6.9601e-13
7.16852e-13
7.38277e-13
7.60299e-13
7.82935e-13
8.062e-13
8.30112e-13
8.54687e-13
8.79943e-13
9.05897e-13
9.32569e-13
9.59976e-13
9.88139e-13
1.01708e-12
1.04681e-12
1.07736e-12
1.10874e-12
1.14098e-12
1.17411e-12
1.20814e-12
1.24309e-12
1.279e-12
1.31588e-12
1.35376e-12
1.39267e-12
1.43262e-12
1.47366e-12
1.51581e-12
1.55908e-12
1.60353e-12
1.64916e-12
1.69602e-12
1.74413e-12
1.79352e-12
1.84424e-12
1.8963e-12
1.94975e-12
2.00462e-12
2.06094e-12
2.11875e-12
2.17809e-12
2.23899e-12
2.30149e-12
2.36564e-12
2.43148e-12
2.49903e-12
2.56836e-12
2.63949e-12
2.71248e-12
2.78737e-12
2.8642e-12
2.94302e-12
3.02388e-12
3.10684e-12
3.19193e-12
3.27921e-12
3.36873e-12
3.46056e-12
3.55473e-12
3.6513e-12
3.75035e-12
3.85191e-12
3.95605e-12
4.06283e-12
4.17232e-12
4.28457e-12
4.39966e-12
4.51764e-12
4.63858e-12
4.76255e-12
4.88963e-12
5.01987e-12
5.15336e-12
5.29017e-12
5.43038e-12
5.57405e-12
5.72128e-12
5.87213e-12
6.0267e-12
6.18506e-12
6.3473e-12
6.51351e-12
6.68377e-12
6.85817e-12
7.03681e-12
7.21978e-12
7.40717e-12
7.59908e-12
7.79561e-12
7.99686e-12
8.20293e-12
8.41392e-12
8.62995e-12
8.85111e-12
9.07752e-12
9.3093e-12
9.54654e-12
9.78938e-12
1.00379e-11
1.02923e-11
1.05526e-11
1.0819e-11
1.10916e-11
1.13705e-11
1.16559e-11
1.19479e-11
1.22466e-11
1.25521e-11
1.28647e-11
1.31844e-11
1.35114e-11
1.38458e-11
1.41878e-11
1.45376e-11
1.48952e-11
1.52609e-11
1.56348e-11
1.6017e-11
1.64078e-11
1.68073e-11
1.72156e-11
1.7633e-11
1.80595e-11
1.84955e-11
1.8941e-11
1.93962e-11
1.98614e-11
2.03367e-11
2.08222e-11
2.13183e-11
2.1825e-11
2.23427e-11
2.28714e-11
2.34114e-11
2.39629e-11
2.4526e-11
2.51011e-11
2.56883e-11
2.62879e-11
2.69e-11
2.75248e-11
2.81627e-11
2.88138e-11
2.94783e-11
3.01565e-11
3.08487e-11
3.1555e-11
3.22756e-11
3.3011e-11
3.37612e-11
3.45265e-11
3.53072e-11
3.61036e-11
3.69158e-11
3.77442e-11
3.8589e-11
3.94504e-11
4.03288e-11
4.12243e-11
4.21373e-11
4.30681e-11
4.40168e-11
4.49838e-11
4.59694e-11
4.69738e-11
4.79973e-11
4.90401e-11
5.01027e-11
5.11851e-11
5.22878e-11
5.3411e-11
5.4555e-11
5.57201e-11
5.69065e-11
5.81145e-11
5.93444e-11
6.05966e-11
6.18712e-11
6.31685e-11
6.44889e-11
6.58325e-11
6.71997e-11
6.85907e-11
7.00057e-11
7.14451e-11
7.2909e-11
7.43977e-11
7.59115e-11
7.74505e-11
7.90149e-11
8.0605e-11
8.22209e-11
8.38628e-11
8.55308e-11
8.72251e-11
8.89459e-11
9.06931e-11
9.24668e-11
9.42672e-11
9.60942e-11
9.79477e-11
9.98278e-11
1.01734e-10
1.03667e-10
1.05626e-10
1.07611e-10
1.09621e-10
1.11656e-10
1.13717e-10
1.15801e-10
1.17909e-10
1.2004e-10
1.22194e-10
1.24368e-10
1.26563e-10
1.28777e-10
1.31009e-10
1.33257e-10
1.3552e-10
1.37796e-10
1.40083e-10
1.42378e-10
1.4468e-10
1.46985e-10
1.49291e-10
1.51593e-10
1.53889e-10
1.56174e-10
1.58444e-10
1.60693e-10
1.62916e-10
1.65107e-10
1.6726e-10
1.69367e-10
1.71421e-10
1.73411e-10
1.7533e-10
1.77167e-10
1.7891e-10
1.80547e-10
1.82065e-10
1.83449e-10
1.84686e-10
1.85757e-10
1.86648e-10
1.8734e-10
1.87817e-10
1.88062e-10
2.67339e-17
8.57677e-17
1.50873e-16
2.22242e-16
2.9998e-16
3.84238e-16
4.75224e-16
5.73188e-16
6.78427e-16
7.91277e-16
9.12104e-16
1.0413e-15
1.17926e-15
1.32643e-15
1.48322e-15
1.65009e-15
1.82749e-15
2.0159e-15
2.21577e-15
2.42759e-15
2.65186e-15
2.88908e-15
3.13975e-15
3.4044e-15
3.68355e-15
3.97775e-15
4.28757e-15
4.61355e-15
4.95628e-15
5.31636e-15
5.6944e-15
6.091e-15
6.50681e-15
6.94248e-15
7.39868e-15
7.87607e-15
8.37537e-15
8.89729e-15
9.44256e-15
1.00119e-14
1.06062e-14
1.1226e-14
1.18724e-14
1.2546e-14
1.32478e-14
1.39785e-14
1.47392e-14
1.55306e-14
1.63538e-14
1.72097e-14
1.80993e-14
1.90235e-14
1.99835e-14
2.09802e-14
2.20149e-14
2.30885e-14
2.42023e-14
2.53574e-14
2.65551e-14
2.77965e-14
2.90829e-14
3.04158e-14
3.17963e-14
3.32259e-14
3.4706e-14
3.62381e-14
3.78236e-14
3.94641e-14
4.11612e-14
4.29165e-14
4.47317e-14
4.66084e-14
4.85484e-14
5.05536e-14
5.26258e-14
5.47669e-14
5.69789e-14
5.92638e-14
6.16236e-14
6.40605e-14
6.65767e-14
6.91745e-14
7.1856e-14
7.46238e-14
7.74802e-14
8.04278e-14
8.34691e-14
8.66069e-14
8.98437e-14
9.31825e-14
9.6626e-14
1.00177e-13
1.03839e-13
1.07615e-13
1.11509e-13
1.15522e-13
1.19659e-13
1.23924e-13
1.2832e-13
1.3285e-13
1.37518e-13
1.42329e-13
1.47285e-13
1.52392e-13
1.57654e-13
1.63074e-13
1.68658e-13
1.7441e-13
1.80334e-13
1.86435e-13
1.92719e-13
1.9919e-13
2.05853e-13
2.12715e-13
2.1978e-13
2.27054e-13
2.34543e-13
2.42253e-13
2.5019e-13
2.5836e-13
2.6677e-13
2.75426e-13
2.84336e-13
2.93506e-13
3.02943e-13
3.12655e-13
3.22649e-13
3.32933e-13
3.43515e-13
3.54403e-13
3.65606e-13
3.77132e-13
3.88991e-13
4.0119e-13
4.1374e-13
4.26649e-13
4.39929e-13
4.53588e-13
4.67637e-13
4.82087e-13
4.96949e-13
5.12234e-13
5.27952e-13
5.44117e-13
5.60739e-13
5.77832e-13
5.95407e-13
6.13478e-13
6.32059e-13
6.51162e-13
6.70802e-13
6.90993e-13
7.11749e-13
7.33087e-13
7.5502e-13
7.77566e-13
8.0074e-13
8.24559e-13
8.4904e-13
8.742e-13
9.00058e-13
9.26631e-13
9.53939e-13
9.82e-13
1.01083e-12
1.04046e-12
1.07091e-12
1.10218e-12
1.13432e-12
1.16733e-12
1.20125e-12
1.23609e-12
1.27188e-12
1.30865e-12
1.34641e-12
1.3852e-12
1.42504e-12
1.46596e-12
1.50798e-12
1.55114e-12
1.59546e-12
1.64097e-12
1.6877e-12
1.73568e-12
1.78495e-12
1.83553e-12
1.88747e-12
1.94078e-12
1.99552e-12
2.05171e-12
2.10938e-12
2.16859e-12
2.22936e-12
2.29173e-12
2.35574e-12
2.42144e-12
2.48886e-12
2.55805e-12
2.62905e-12
2.7019e-12
2.77666e-12
2.85335e-12
2.93204e-12
3.01277e-12
3.0956e-12
3.18056e-12
3.26771e-12
3.35711e-12
3.4488e-12
3.54285e-12
3.6393e-12
3.73822e-12
3.83967e-12
3.94369e-12
4.05037e-12
4.15974e-12
4.27189e-12
4.38687e-12
4.50475e-12
4.6256e-12
4.74949e-12
4.87648e-12
5.00664e-12
5.14006e-12
5.27681e-12
5.41695e-12
5.56057e-12
5.70775e-12
5.85857e-12
6.0131e-12
6.17144e-12
6.33367e-12
6.49987e-12
6.67014e-12
6.84456e-12
7.02323e-12
7.20623e-12
7.39368e-12
7.58565e-12
7.78226e-12
7.9836e-12
8.18978e-12
8.4009e-12
8.61707e-12
8.83839e-12
9.06498e-12
9.29694e-12
9.5344e-12
9.77748e-12
1.00263e-11
1.02809e-11
1.05415e-11
1.08083e-11
1.10812e-11
1.13605e-11
1.16463e-11
1.19387e-11
1.22379e-11
1.25439e-11
1.2857e-11
1.31773e-11
1.35049e-11
1.38399e-11
1.41826e-11
1.45331e-11
1.48915e-11
1.52579e-11
1.56327e-11
1.60158e-11
1.64075e-11
1.68079e-11
1.72173e-11
1.76357e-11
1.80634e-11
1.85005e-11
1.89473e-11
1.94038e-11
1.98704e-11
2.03471e-11
2.08342e-11
2.13318e-11
2.18402e-11
2.23595e-11
2.289e-11
2.34319e-11
2.39853e-11
2.45505e-11
2.51277e-11
2.57171e-11
2.6319e-11
2.69335e-11
2.75608e-11
2.82013e-11
2.8855e-11
2.95224e-11
3.02035e-11
3.08987e-11
3.16081e-11
3.23321e-11
3.30708e-11
3.38245e-11
3.45935e-11
3.5378e-11
3.61783e-11
3.69946e-11
3.78272e-11
3.86764e-11
3.95424e-11
4.04254e-11
4.13259e-11
4.22439e-11
4.31799e-11
4.4134e-11
4.51067e-11
4.6098e-11
4.71084e-11
4.81381e-11
4.91874e-11
5.02566e-11
5.13459e-11
5.24557e-11
5.35863e-11
5.47379e-11
5.59108e-11
5.71053e-11
5.83217e-11
5.95603e-11
6.08215e-11
6.21053e-11
6.34123e-11
6.47425e-11
6.60964e-11
6.74742e-11
6.88761e-11
7.03025e-11
7.17536e-11
7.32296e-11
7.47309e-11
7.62576e-11
7.781e-11
7.93883e-11
8.09927e-11
8.26235e-11
8.42807e-11
8.59647e-11
8.76756e-11
8.94134e-11
9.11784e-11
9.29705e-11
9.479e-11
9.66368e-11
9.85109e-11
1.00412e-10
1.02341e-10
1.04297e-10
1.0628e-10
1.0829e-10
1.10326e-10
1.12389e-10
1.14478e-10
1.16592e-10
1.18731e-10
1.20895e-10
1.23082e-10
1.25292e-10
1.27525e-10
1.29778e-10
1.32051e-10
1.34343e-10
1.36652e-10
1.38976e-10
1.41313e-10
1.43663e-10
1.46021e-10
1.48387e-10
1.50756e-10
1.53126e-10
1.55493e-10
1.57854e-10
1.60205e-10
1.62541e-10
1.64856e-10
1.67145e-10
1.69403e-10
1.71622e-10
1.73795e-10
1.75914e-10
1.77969e-10
1.79952e-10
1.81852e-10
1.83657e-10
1.85355e-10
1.86932e-10
1.88373e-10
1.89662e-10
1.90784e-10
1.91718e-10
1.92448e-10
1.92954e-10
1.93217e-10
2.62266e-17
8.41225e-17
1.47874e-16
2.17813e-16
2.94178e-16
3.77172e-16
4.67019e-16
5.63975e-16
6.68335e-16
7.80428e-16
9.00616e-16
1.02929e-15
1.16684e-15
1.3137e-15
1.47031e-15
1.63711e-15
1.81456e-15
2.00312e-15
2.20328e-15
2.41552e-15
2.64034e-15
2.87825e-15
3.12976e-15
3.39541e-15
3.67574e-15
3.97129e-15
4.28264e-15
4.61036e-15
4.95505e-15
5.31731e-15
5.69775e-15
6.09702e-15
6.51576e-15
6.95463e-15
7.41432e-15
7.89553e-15
8.39895e-15
8.92534e-15
9.47543e-15
1.005e-14
1.06498e-14
1.12757e-14
1.19284e-14
1.26089e-14
1.3318e-14
1.40565e-14
1.48255e-14
1.56257e-14
1.64583e-14
1.73241e-14
1.82241e-14
1.91595e-14
2.01312e-14
2.11403e-14
2.2188e-14
2.32754e-14
2.44037e-14
2.5574e-14
2.67876e-14
2.80458e-14
2.93499e-14
3.07012e-14
3.21011e-14
3.35509e-14
3.50523e-14
3.66065e-14
3.82152e-14
3.98799e-14
4.16023e-14
4.33839e-14
4.52266e-14
4.71319e-14
4.91019e-14
5.11382e-14
5.32427e-14
5.54175e-14
5.76645e-14
5.99858e-14
6.23835e-14
6.48598e-14
6.74168e-14
7.00569e-14
7.27825e-14
7.5596e-14
7.84998e-14
8.14965e-14
8.45888e-14
8.77793e-14
9.10708e-14
9.44663e-14
9.79685e-14
1.01581e-13
1.05306e-13
1.09147e-13
1.13107e-13
1.1719e-13
1.214e-13
1.25739e-13
1.30211e-13
1.34821e-13
1.39572e-13
1.44467e-13
1.49512e-13
1.5471e-13
1.60065e-13
1.65582e-13
1.71266e-13
1.77121e-13
1.83151e-13
1.89362e-13
1.95759e-13
2.02347e-13
2.09132e-13
2.16118e-13
2.23311e-13
2.30718e-13
2.38344e-13
2.46195e-13
2.54277e-13
2.62597e-13
2.71162e-13
2.79977e-13
2.89051e-13
2.9839e-13
3.08001e-13
3.17892e-13
3.28072e-13
3.38546e-13
3.49325e-13
3.60416e-13
3.71827e-13
3.83568e-13
3.95647e-13
4.08074e-13
4.20858e-13
4.34009e-13
4.47537e-13
4.61452e-13
4.75765e-13
4.90486e-13
5.05627e-13
5.21199e-13
5.37213e-13
5.53682e-13
5.70617e-13
5.88032e-13
6.05939e-13
6.24351e-13
6.43283e-13
6.62747e-13
6.82759e-13
7.03332e-13
7.24482e-13
7.46224e-13
7.68574e-13
7.91547e-13
8.15162e-13
8.39433e-13
8.6438e-13
8.90019e-13
9.16369e-13
9.43448e-13
9.71277e-13
9.99873e-13
1.02926e-12
1.05945e-12
1.09048e-12
1.12235e-12
1.1551e-12
1.18875e-12
1.22331e-12
1.25882e-12
1.2953e-12
1.33277e-12
1.37126e-12
1.4108e-12
1.4514e-12
1.4931e-12
1.53593e-12
1.57992e-12
1.62509e-12
1.67148e-12
1.71911e-12
1.76802e-12
1.81823e-12
1.86979e-12
1.92273e-12
1.97707e-12
2.03287e-12
2.09014e-12
2.14893e-12
2.20928e-12
2.27123e-12
2.33481e-12
2.40006e-12
2.46703e-12
2.53576e-12
2.60629e-12
2.67867e-12
2.75294e-12
2.82914e-12
2.90733e-12
2.98755e-12
3.06985e-12
3.15428e-12
3.24089e-12
3.32974e-12
3.42088e-12
3.51436e-12
3.61025e-12
3.70858e-12
3.80943e-12
3.91286e-12
4.01892e-12
4.12768e-12
4.23919e-12
4.35353e-12
4.47077e-12
4.59096e-12
4.71417e-12
4.84048e-12
4.96996e-12
5.10269e-12
5.23872e-12
5.37815e-12
5.52105e-12
5.66749e-12
5.81757e-12
5.97135e-12
6.12893e-12
6.29038e-12
6.45581e-12
6.62529e-12
6.79891e-12
6.97677e-12
7.15897e-12
7.34559e-12
7.53674e-12
7.73251e-12
7.93301e-12
8.13833e-12
8.34859e-12
8.56389e-12
8.78434e-12
9.01005e-12
9.24114e-12
9.47771e-12
9.71988e-12
9.96778e-12
1.02215e-11
1.04812e-11
1.07471e-11
1.10191e-11
1.12975e-11
1.15823e-11
1.18738e-11
1.21721e-11
1.24772e-11
1.27894e-11
1.31087e-11
1.34354e-11
1.37695e-11
1.41113e-11
1.44608e-11
1.48183e-11
1.51839e-11
1.55577e-11
1.59399e-11
1.63308e-11
1.67303e-11
1.71388e-11
1.75564e-11
1.79833e-11
1.84196e-11
1.88655e-11
1.93212e-11
1.9787e-11
2.02629e-11
2.07493e-11
2.12462e-11
2.17539e-11
2.22725e-11
2.28024e-11
2.33436e-11
2.38965e-11
2.44611e-11
2.50378e-11
2.56267e-11
2.62281e-11
2.68421e-11
2.74691e-11
2.81092e-11
2.87627e-11
2.94298e-11
3.01107e-11
3.08057e-11
3.15151e-11
3.2239e-11
3.29777e-11
3.37315e-11
3.45007e-11
3.52854e-11
3.6086e-11
3.69026e-11
3.77357e-11
3.85853e-11
3.94519e-11
4.03357e-11
4.12369e-11
4.21558e-11
4.30928e-11
4.4048e-11
4.50218e-11
4.60145e-11
4.70263e-11
4.80575e-11
4.91085e-11
5.01795e-11
5.12708e-11
5.23826e-11
5.35154e-11
5.46694e-11
5.58449e-11
5.70421e-11
5.82615e-11
5.95032e-11
6.07676e-11
6.20549e-11
6.33656e-11
6.46997e-11
6.60578e-11
6.74399e-11
6.88465e-11
7.02778e-11
7.1734e-11
7.32155e-11
7.47226e-11
7.62553e-11
7.78141e-11
7.93992e-11
8.10108e-11
8.2649e-11
8.43143e-11
8.60066e-11
8.77262e-11
8.94733e-11
9.12481e-11
9.30506e-11
9.48809e-11
9.67392e-11
9.86255e-11
1.0054e-10
1.02482e-10
1.04452e-10
1.0645e-10
1.08476e-10
1.10529e-10
1.1261e-10
1.14718e-10
1.16852e-10
1.19012e-10
1.21198e-10
1.2341e-10
1.25645e-10
1.27905e-10
1.30187e-10
1.3249e-10
1.34814e-10
1.37158e-10
1.39519e-10
1.41896e-10
1.44288e-10
1.46692e-10
1.49105e-10
1.51526e-10
1.53952e-10
1.56379e-10
1.58804e-10
1.61223e-10
1.63632e-10
1.66027e-10
1.68401e-10
1.70751e-10
1.73068e-10
1.75348e-10
1.77581e-10
1.79761e-10
1.81877e-10
1.83921e-10
1.85881e-10
1.87746e-10
1.89502e-10
1.91137e-10
1.92634e-10
1.93978e-10
1.95149e-10
1.9613e-10
1.969e-10
1.97437e-10
1.97717e-10
2.57475e-17
8.25611e-17
1.45033e-16
2.13528e-16
2.88373e-16
3.69848e-16
4.58228e-16
5.53799e-16
6.56873e-16
7.67788e-16
8.86907e-16
1.01461e-15
1.15131e-15
1.29742e-15
1.45338e-15
1.61962e-15
1.79661e-15
1.98481e-15
2.18471e-15
2.39679e-15
2.62155e-15
2.8595e-15
3.11118e-15
3.37711e-15
3.65784e-15
3.95393e-15
4.26596e-15
4.59451e-15
4.94018e-15
5.30359e-15
5.68537e-15
6.08616e-15
6.50662e-15
6.94744e-15
7.40929e-15
7.89288e-15
8.39896e-15
8.92824e-15
9.48151e-15
1.00595e-14
1.06631e-14
1.12931e-14
1.19502e-14
1.26355e-14
1.33497e-14
1.40937e-14
1.48686e-14
1.56751e-14
1.65144e-14
1.73874e-14
1.82951e-14
1.92386e-14
2.02189e-14
2.12371e-14
2.22945e-14
2.33921e-14
2.45311e-14
2.57129e-14
2.69385e-14
2.82093e-14
2.95267e-14
3.0892e-14
3.23065e-14
3.37718e-14
3.52893e-14
3.68604e-14
3.84869e-14
4.01701e-14
4.19119e-14
4.37138e-14
4.55777e-14
4.75052e-14
4.94982e-14
5.15586e-14
5.36882e-14
5.58892e-14
5.81634e-14
6.05131e-14
6.29403e-14
6.54472e-14
6.80362e-14
7.07095e-14
7.34695e-14
7.63188e-14
7.92597e-14
8.2295e-14
8.54273e-14
8.86593e-14
9.19939e-14
9.54339e-14
9.89824e-14
1.02642e-13
1.06417e-13
1.10309e-13
1.14323e-13
1.18461e-13
1.22728e-13
1.27126e-13
1.31659e-13
1.36332e-13
1.41148e-13
1.46111e-13
1.51225e-13
1.56495e-13
1.61925e-13
1.67519e-13
1.73282e-13
1.79219e-13
1.85334e-13
1.91633e-13
1.9812e-13
2.04801e-13
2.11682e-13
2.18767e-13
2.26063e-13
2.33575e-13
2.4131e-13
2.49274e-13
2.57472e-13
2.65911e-13
2.74599e-13
2.83542e-13
2.92747e-13
3.02221e-13
3.11971e-13
3.22006e-13
3.32333e-13
3.4296e-13
3.53896e-13
3.65149e-13
3.76727e-13
3.88639e-13
4.00895e-13
4.13504e-13
4.26476e-13
4.3982e-13
4.53547e-13
4.67668e-13
4.82191e-13
4.9713e-13
5.12495e-13
5.28297e-13
5.44548e-13
5.61261e-13
5.78448e-13
5.96121e-13
6.14294e-13
6.3298e-13
6.52194e-13
6.71948e-13
6.92258e-13
7.13138e-13
7.34604e-13
7.56671e-13
7.79355e-13
8.02673e-13
8.26641e-13
8.51277e-13
8.76597e-13
9.02621e-13
9.29367e-13
9.56854e-13
9.85101e-13
1.01413e-12
1.04396e-12
1.07461e-12
1.1061e-12
1.13845e-12
1.1717e-12
1.20585e-12
1.24094e-12
1.27699e-12
1.31402e-12
1.35206e-12
1.39113e-12
1.43127e-12
1.47249e-12
1.51482e-12
1.55831e-12
1.60296e-12
1.64882e-12
1.69591e-12
1.74427e-12
1.79392e-12
1.84491e-12
1.89725e-12
1.951e-12
2.00618e-12
2.06282e-12
2.12097e-12
2.18067e-12
2.24194e-12
2.30483e-12
2.36939e-12
2.43565e-12
2.50364e-12
2.57343e-12
2.64505e-12
2.71854e-12
2.79395e-12
2.87132e-12
2.95072e-12
3.03217e-12
3.11575e-12
3.20148e-12
3.28943e-12
3.37966e-12
3.47221e-12
3.56714e-12
3.6645e-12
3.76436e-12
3.86678e-12
3.97181e-12
4.07952e-12
4.18996e-12
4.30321e-12
4.41933e-12
4.53839e-12
4.66045e-12
4.78559e-12
4.91387e-12
5.04537e-12
5.18016e-12
5.31832e-12
5.45993e-12
5.60506e-12
5.7538e-12
5.90622e-12
6.06242e-12
6.22247e-12
6.38646e-12
6.55448e-12
6.72662e-12
6.90297e-12
7.08363e-12
7.2687e-12
7.45826e-12
7.65242e-12
7.85128e-12
8.05494e-12
8.2635e-12
8.47709e-12
8.69579e-12
8.91973e-12
9.14901e-12
9.38376e-12
9.62408e-12
9.8701e-12
1.01219e-11
1.03797e-11
1.06436e-11
1.09136e-11
1.11899e-11
1.14728e-11
1.17622e-11
1.20583e-11
1.23613e-11
1.26713e-11
1.29885e-11
1.33129e-11
1.36448e-11
1.39843e-11
1.43316e-11
1.46867e-11
1.50499e-11
1.54214e-11
1.58012e-11
1.61896e-11
1.65867e-11
1.69927e-11
1.74078e-11
1.78321e-11
1.82658e-11
1.87092e-11
1.91623e-11
1.96254e-11
2.00987e-11
2.05824e-11
2.10766e-11
2.15816e-11
2.20975e-11
2.26246e-11
2.3163e-11
2.37131e-11
2.42749e-11
2.48488e-11
2.54348e-11
2.60334e-11
2.66445e-11
2.72686e-11
2.79059e-11
2.85565e-11
2.92206e-11
2.98987e-11
3.05908e-11
3.12972e-11
3.20182e-11
3.2754e-11
3.35049e-11
3.42711e-11
3.50529e-11
3.58506e-11
3.66644e-11
3.74945e-11
3.83413e-11
3.92051e-11
4.0086e-11
4.09844e-11
4.19006e-11
4.28348e-11
4.37873e-11
4.47584e-11
4.57484e-11
4.67576e-11
4.77863e-11
4.88347e-11
4.99032e-11
5.09921e-11
5.21017e-11
5.32322e-11
5.43839e-11
5.55573e-11
5.67525e-11
5.79699e-11
5.92097e-11
6.04723e-11
6.1758e-11
6.30671e-11
6.43999e-11
6.57566e-11
6.71377e-11
6.85432e-11
6.99737e-11
7.14293e-11
7.29103e-11
7.4417e-11
7.59498e-11
7.75087e-11
7.90942e-11
8.07064e-11
8.23456e-11
8.4012e-11
8.57058e-11
8.74273e-11
8.91766e-11
9.09539e-11
9.27594e-11
9.45931e-11
9.64553e-11
9.83459e-11
1.00265e-10
1.02213e-10
1.04189e-10
1.06194e-10
1.08227e-10
1.10289e-10
1.12379e-10
1.14496e-10
1.16641e-10
1.18814e-10
1.21013e-10
1.23239e-10
1.2549e-10
1.27767e-10
1.30067e-10
1.32391e-10
1.34737e-10
1.37105e-10
1.39492e-10
1.41898e-10
1.44321e-10
1.46758e-10
1.49208e-10
1.51669e-10
1.54138e-10
1.56612e-10
1.59088e-10
1.61563e-10
1.64032e-10
1.66492e-10
1.68938e-10
1.71365e-10
1.73767e-10
1.76138e-10
1.78471e-10
1.80759e-10
1.82993e-10
1.85164e-10
1.87263e-10
1.89278e-10
1.91198e-10
1.9301e-10
1.94699e-10
1.96249e-10
1.97644e-10
1.98864e-10
1.9989e-10
2.00698e-10
2.01265e-10
2.01564e-10
2.53235e-17
8.11742e-17
1.42509e-16
2.09688e-16
2.83081e-16
3.63031e-16
4.4987e-16
5.43932e-16
6.45556e-16
7.55101e-16
8.72941e-16
9.99462e-16
1.13507e-15
1.28018e-15
1.43522e-15
1.60064e-15
1.77688e-15
1.96442e-15
2.16372e-15
2.37529e-15
2.59962e-15
2.83722e-15
3.08863e-15
3.35438e-15
3.63501e-15
3.93111e-15
4.24325e-15
4.57201e-15
4.91802e-15
5.28189e-15
5.66425e-15
6.06577e-15
6.48711e-15
6.92895e-15
7.392e-15
7.87698e-15
8.38461e-15
8.91566e-15
9.4709e-15
1.00511e-14
1.06571e-14
1.12897e-14
1.19498e-14
1.26382e-14
1.33559e-14
1.41037e-14
1.48825e-14
1.56935e-14
1.65374e-14
1.74154e-14
1.83285e-14
1.92777e-14
2.02642e-14
2.1289e-14
2.23533e-14
2.34583e-14
2.46052e-14
2.57952e-14
2.70296e-14
2.83097e-14
2.96368e-14
3.10124e-14
3.24378e-14
3.39145e-14
3.5444e-14
3.70278e-14
3.86675e-14
4.03646e-14
4.2121e-14
4.39381e-14
4.58179e-14
4.77621e-14
4.97726e-14
5.18512e-14
5.39999e-14
5.62206e-14
5.85156e-14
6.08868e-14
6.33365e-14
6.58669e-14
6.84802e-14
7.11788e-14
7.39652e-14
7.68418e-14
7.98113e-14
8.28761e-14
8.60391e-14
8.9303e-14
9.26707e-14
9.61451e-14
9.97292e-14
1.03426e-13
1.07239e-13
1.11171e-13
1.15226e-13
1.19407e-13
1.23717e-13
1.28161e-13
1.32741e-13
1.37463e-13
1.42329e-13
1.47345e-13
1.52513e-13
1.57839e-13
1.63326e-13
1.6898e-13
1.74805e-13
1.80805e-13
1.86986e-13
1.93353e-13
1.9991e-13
2.06664e-13
2.1362e-13
2.20782e-13
2.28158e-13
2.35753e-13
2.43572e-13
2.51623e-13
2.59912e-13
2.68445e-13
2.77229e-13
2.86271e-13
2.95578e-13
3.05157e-13
3.15017e-13
3.25164e-13
3.35606e-13
3.46353e-13
3.57411e-13
3.6879e-13
3.80498e-13
3.92545e-13
4.0494e-13
4.17692e-13
4.3081e-13
4.44306e-13
4.58189e-13
4.72469e-13
4.87159e-13
5.02267e-13
5.17807e-13
5.3379e-13
5.50227e-13
5.67131e-13
5.84515e-13
6.02391e-13
6.20773e-13
6.39674e-13
6.59108e-13
6.7909e-13
6.99634e-13
7.20756e-13
7.42469e-13
7.64792e-13
7.87738e-13
8.11326e-13
8.35572e-13
8.60493e-13
8.86108e-13
9.12435e-13
9.39492e-13
9.67298e-13
9.95875e-13
1.02524e-12
1.05542e-12
1.08642e-12
1.11828e-12
1.15102e-12
1.18465e-12
1.21921e-12
1.25471e-12
1.29118e-12
1.32865e-12
1.36713e-12
1.40666e-12
1.44727e-12
1.48898e-12
1.53181e-12
1.57581e-12
1.62099e-12
1.66739e-12
1.71504e-12
1.76397e-12
1.81421e-12
1.8658e-12
1.91877e-12
1.97315e-12
2.02898e-12
2.0863e-12
2.14514e-12
2.20555e-12
2.26755e-12
2.3312e-12
2.39652e-12
2.46357e-12
2.53238e-12
2.603e-12
2.67547e-12
2.74984e-12
2.82615e-12
2.90446e-12
2.98481e-12
3.06724e-12
3.15182e-12
3.23858e-12
3.32759e-12
3.4189e-12
3.51257e-12
3.60864e-12
3.70718e-12
3.80825e-12
3.9119e-12
4.0182e-12
4.12721e-12
4.239e-12
4.35362e-12
4.47115e-12
4.59165e-12
4.71519e-12
4.84185e-12
4.9717e-12
5.1048e-12
5.24123e-12
5.38108e-12
5.52442e-12
5.67132e-12
5.82187e-12
5.97616e-12
6.13427e-12
6.29628e-12
6.46228e-12
6.63236e-12
6.80661e-12
6.98513e-12
7.16802e-12
7.35536e-12
7.54725e-12
7.74381e-12
7.94512e-12
8.15129e-12
8.36244e-12
8.57866e-12
8.80007e-12
9.02678e-12
9.25891e-12
9.49656e-12
9.73987e-12
9.98894e-12
1.02439e-11
1.05049e-11
1.0772e-11
1.10454e-11
1.13252e-11
1.16116e-11
1.19046e-11
1.22044e-11
1.25112e-11
1.28251e-11
1.31463e-11
1.34748e-11
1.38108e-11
1.41546e-11
1.45062e-11
1.48658e-11
1.52336e-11
1.56098e-11
1.59944e-11
1.63877e-11
1.67898e-11
1.72009e-11
1.76213e-11
1.8051e-11
1.84902e-11
1.89392e-11
1.93981e-11
1.98671e-11
2.03464e-11
2.08363e-11
2.13368e-11
2.18482e-11
2.23707e-11
2.29045e-11
2.34499e-11
2.4007e-11
2.4576e-11
2.51572e-11
2.57508e-11
2.63571e-11
2.69761e-11
2.76082e-11
2.82537e-11
2.89127e-11
2.95854e-11
3.02722e-11
3.09733e-11
3.16889e-11
3.24192e-11
3.31646e-11
3.39252e-11
3.47014e-11
3.54934e-11
3.63015e-11
3.71259e-11
3.79669e-11
3.88247e-11
3.96998e-11
4.05922e-11
4.15024e-11
4.24306e-11
4.3377e-11
4.43421e-11
4.5326e-11
4.6329e-11
4.73515e-11
4.83938e-11
4.94561e-11
5.05388e-11
5.16421e-11
5.27663e-11
5.39118e-11
5.50789e-11
5.62678e-11
5.7479e-11
5.87126e-11
5.9969e-11
6.12485e-11
6.25514e-11
6.3878e-11
6.52287e-11
6.66037e-11
6.80033e-11
6.94278e-11
7.08775e-11
7.23528e-11
7.38538e-11
7.5381e-11
7.69345e-11
7.85146e-11
8.01216e-11
8.17558e-11
8.34174e-11
8.51066e-11
8.68237e-11
8.85688e-11
9.03422e-11
9.2144e-11
9.39744e-11
9.58335e-11
9.77216e-11
9.96385e-11
1.01584e-10
1.0356e-10
1.05564e-10
1.07597e-10
1.09659e-10
1.11749e-10
1.13869e-10
1.16017e-10
1.18193e-10
1.20396e-10
1.22627e-10
1.24885e-10
1.2717e-10
1.29479e-10
1.31814e-10
1.34172e-10
1.36554e-10
1.38957e-10
1.41381e-10
1.43823e-10
1.46283e-10
1.48759e-10
1.51248e-10
1.53748e-10
1.56256e-10
1.58771e-10
1.61288e-10
1.63804e-10
1.66316e-10
1.68819e-10
1.71309e-10
1.7378e-10
1.76227e-10
1.78643e-10
1.81022e-10
1.83357e-10
1.85638e-10
1.87857e-10
1.90004e-10
1.92068e-10
1.94037e-10
1.95897e-10
1.97634e-10
1.99232e-10
2.00673e-10
2.01938e-10
2.03005e-10
2.03849e-10
2.04444e-10
2.04759e-10
2.49683e-17
8.00116e-17
1.40397e-16
2.06462e-16
2.78596e-16
3.57183e-16
4.42605e-16
5.35238e-16
6.35461e-16
7.43655e-16
8.60209e-16
9.85521e-16
1.12e-15
1.26405e-15
1.41811e-15
1.58262e-15
1.75802e-15
1.94478e-15
2.14336e-15
2.35427e-15
2.578e-15
2.81506e-15
3.06598e-15
3.33131e-15
3.61159e-15
3.9074e-15
4.21932e-15
4.54794e-15
4.89389e-15
5.25779e-15
5.64028e-15
6.04202e-15
6.46368e-15
6.90597e-15
7.36959e-15
7.85525e-15
8.36372e-15
8.89574e-15
9.45209e-15
1.00336e-14
1.0641e-14
1.12753e-14
1.19372e-14
1.26276e-14
1.33475e-14
1.40977e-14
1.48792e-14
1.5693e-14
1.65401e-14
1.74215e-14
1.83383e-14
1.92914e-14
2.02821e-14
2.13114e-14
2.23806e-14
2.34907e-14
2.46431e-14
2.58389e-14
2.70795e-14
2.83662e-14
2.97003e-14
3.10833e-14
3.25165e-14
3.40014e-14
3.55395e-14
3.71324e-14