# vtk DataFile Version 2.0
sampleSurface
ASCII
DATASET POLYDATA
POINTS 8421 float
0.001 0.001 0.001 0 0.001 0.001 0 0 0.001 0.001 0
0.001 0.002 0.001 0.001 0.002 0 0.001 0.003 0.001 0.001
0.003 0 0.001 0.004 0.001 0.001 0.004 0 0.001 0.005
0.001 0.001 0.005 0 0.001 0.006 0.001 0.001 0.006 0
0.001 0.007 0.001 0.001 0.007 0 0.001 0.008 0.001 0.001
0.008 0 0.001 0.009 0.001 0.001 0.009 0 0.001 0.01
0.001 0.001 0.01 0 0.001 0.011 0.001 0.001 0.011 0
0.001 0.012 0.001 0.001 0.012 0 0.001 0.013 0.001 0.001
0.013 0 0.001 0.014 0.001 0.001 0.014 0 0.001 0.015
0.001 0.001 0.015 0 0.001 0.016 0.001 0.001 0.016 0
0.001 0.017 0.001 0.001 0.017 0 0.001 0.018 0.001 0.001
0.018 0 0.001 0.019 0.001 0.001 0.019 0 0.001 0.02
0.001 0.001 0.02 0 0.001 0.021 0.001 0.001 0.021 0
0.001 0.022 0.001 0.001 0.022 0 0.001 0.023 0.001 0.001
0.023 0 0.001 0.024 0.001 0.001 0.024 0 0.001 0.025
0.001 0.001 0.025 0 0.001 0.026 0.001 0.001 0.026 0
0.001 0.027 0.001 0.001 0.027 0 0.001 0.028 0.001 0.001
0.028 0 0.001 0.029 0.001 0.001 0.029 0 0.001 0.03
0.001 0.001 0.03 0 0.001 0.031 0.001 0.001 0.031 0
0.001 0.032 0.001 0.001 0.032 0 0.001 0.033 0.001 0.001
0.033 0 0.001 0.034 0.001 0.001 0.034 0 0.001 0.035
0.001 0.001 0.035 0 0.001 0.036 0.001 0.001 0.036 0
0.001 0.037 0.001 0.001 0.037 0 0.001 0.038 0.001 0.001
0.038 0 0.001 0.039 0.001 0.001 0.039 0 0.001 0.04
0.001 0.001 0.04 0 0.001 0.041 0.001 0.001 0.041 0
0.001 0.042 0.001 0.001 0.042 0 0.001 0.043 0.001 0.001
0.043 0 0.001 0.044 0.001 0.001 0.044 0 0.001 0.045
0.001 0.001 0.045 0 0.001 0.046 0.001 0.001 0.046 0
0.001 0.047 0.001 0.001 0.047 0 0.001 0.048 0.001 0.001
0.048 0 0.001 0.049 0.001 0.001 0.049 0 0.001 0.05
0.001 0.001 0.05 0 0.001 0.051 0.001 0.001 0.051 0
0.001 0.052 0.001 0.001 0.052 0 0.001 0.053 0.001 0.001
0.053 0 0.001 0.054 0.001 0.001 0.054 0 0.001 0.055
0.001 0.001 0.055 0 0.001 0.056 0.001 0.001 0.056 0
0.001 0.057 0.001 0.001 0.057 0 0.001 0.058 0.001 0.001
0.058 0 0.001 0.059 0.001 0.001 0.059 0 0.001 0.06
0.001 0.001 0.06 0 0.001 0.061 0.001 0.001 0.061 0
0.001 0.062 0.001 0.001 0.062 0 0.001 0.063 0.001 0.001
0.063 0 0.001 0.064 0.001 0.001 0.064 0 0.001 0.065
0.001 0.001 0.065 0 0.001 0.066 0.001 0.001 0.066 0
0.001 0.067 0.001 0.001 0.067 0 0.001 0.068 0.001 0.001
0.068 0 0.001 0.069 0.001 0.001 0.069 0 0.001 0.07
0.001 0.001 0.07 0 0.001 0.071 0.001 0.001 0.071 0
0.001 0.072 0.001 0.001 0.072 0 0.001 0.073 0.001 0.001
0.073 0 0.001 0.074 0.001 0.001 0.074 0 0.001 0.075
0.001 0.001 0.075 0 0.001 0.076 0.001 0.001 0.076 0
0.001 0.077 0.001 0.001 0.077 0 0.001 0.078 0.001 0.001
0.078 0 0.001 0.079 0.001 0.001 0.079 0 0.001 0.08
0.001 0.001 0.08 0 0.001 0.081 0.001 0.001 0.081 0
0.001 0.082 0.001 0.001 0.082 0 0.001 0.083 0.001 0.001
0.083 0 0.001 0.084 0.001 0.001 0.084 0 0.001 0.085
0.001 0.001 0.085 0 0.001 0.086 0.001 0.001 0.086 0
0.001 0.087 0.001 0.001 0.087 0 0.001 0.088 0.001 0.001
0.088 0 0.001 0.089 0.001 0.001 0.089 0 0.001 0.09
0.001 0.001 0.09 0 0.001 0.091 0.001 0.001 0.091 0
0.001 0.092 0.001 0.001 0.092 0 0.001 0.093 0.001 0.001
0.093 0 0.001 0.094 0.001 0.001 0.094 0 0.001 0.095
0.001 0.001 0.095 0 0.001 0.096 0.001 0.001 0.096 0
0.001 0.097 0.001 0.001 0.097 0 0.001 0.098 0.001 0.001
0.098 0 0.001 0.099 0.001 0.001 0.099 0 0.001 0.1
0.001 0.001 0.1 0 0.001 0.101 0.001 0.001 0.101 0
0.001 0.102 0.001 0.001 0.102 0 0.001 0.103 0.001 0.001
0.103 0 0.001 0.104 0.001 0.001 0.104 0 0.001 0.105
0.001 0.001 0.105 0 0.001 0.106 0.001 0.001 0.106 0
0.001 0.107 0.001 0.001 0.107 0 0.001 0.108 0.001 0.001
0.108 0 0.001 0.109 0.001 0.001 0.109 0 0.001 0.11
0.001 0.001 0.11 0 0.001 0.111 0.001 0.001 0.111 0
0.001 0.112 0.001 0.001 0.112 0 0.001 0.113 0.001 0.001
0.113 0 0.001 0.114 0.001 0.001 0.114 0 0.001 0.115
0.001 0.001 0.115 0 0.001 0.116 0.001 0.001 0.116 0
0.001 0.117 0.001 0.001 0.117 0 0.001 0.118 0.001 0.001
0.118 0 0.001 0.119 0.001 0.001 0.119 0 0.001 0.12
0.001 0.001 0.12 0 0.001 0.121 0.001 0.001 0.121 0
0.001 0.122 0.001 0.001 0.122 0 0.001 0.123 0.001 0.001
0.123 0 0.001 0.124 0.001 0.001 0.124 0 0.001 0.125
0.001 0.001 0.125 0 0.001 0.126 0.001 0.001 0.126 0
0.001 0.127 0.001 0.001 0.127 0 0.001 0.128 0.001 0.001
0.128 0 0.001 0.129 0.001 0.001 0.129 0 0.001 0.13
0.001 0.001 0.13 0 0.001 0.131 0.001 0.001 0.131 0
0.001 0.132 0.001 0.001 0.132 0 0.001 0.133 0.001 0.001
0.133 0 0.001 0.134 0.001 0.001 0.134 0 0.001 0.135
0.001 0.001 0.135 0 0.001 0.136 0.001 0.001 0.136 0
0.001 0.137 0.001 0.001 0.137 0 0.001 0.138 0.001 0.001
0.138 0 0.001 0.139 0.001 0.001 0.139 0 0.001 0.14
0.001 0.001 0.14 0 0.001 0.141 0.001 0.001 0.141 0
0.001 0.142 0.001 0.001 0.142 0 0.001 0.143 0.001 0.001
0.143 0 0.001 0.144 0.001 0.001 0.144 0 0.001 0.145
0.001 0.001 0.145 0 0.001 0.146 0.001 0.001 0.146 0
0.001 0.147 0.001 0.001 0.147 0 0.001 0.148 0.001 0.001
0.148 0 0.001 0.149 0.001 0.001 0.149 0 0.001 0.15
0.001 0.001 0.15 0 0.001 0.151 0.001 0.001 0.151 0
0.001 0.152 0.001 0.001 0.152 0 0.001 0.153 0.001 0.001
0.153 0 0.001 0.154 0.001 0.001 0.154 0 0.001 0.155
0.001 0.001 0.155 0 0.001 0.156 0.001 0.001 0.156 0
0.001 0.157 0.001 0.001 0.157 0 0.001 0.158 0.001 0.001
0.158 0 0.001 0.159 0.001 0.001 0.159 0 0.001 0.16
0.001 0.001 0.16 0 0.001 0.161 0.001 0.001 0.161 0
0.001 0.162 0.001 0.001 0.162 0 0.001 0.163 0.001 0.001
0.163 0 0.001 0.164 0.001 0.001 0.164 0 0.001 0.165
0.001 0.001 0.165 0 0.001 0.166 0.001 0.001 0.166 0
0.001 0.167 0.001 0.001 0.167 0 0.001 0.168 0.001 0.001
0.168 0 0.001 0.169 0.001 0.001 0.169 0 0.001 0.17
0.001 0.001 0.17 0 0.001 0.171 0.001 0.001 0.171 0
0.001 0.172 0.001 0.001 0.172 0 0.001 0.173 0.001 0.001
0.173 0 0.001 0.174 0.001 0.001 0.174 0 0.001 0.175
0.001 0.001 0.175 0 0.001 0.176 0.001 0.001 0.176 0
0.001 0.177 0.001 0.001 0.177 0 0.001 0.178 0.001 0.001
0.178 0 0.001 0.179 0.001 0.001 0.179 0 0.001 0.18
0.001 0.001 0.18 0 0.001 0.181 0.001 0.001 0.181 0
0.001 0.182 0.001 0.001 0.182 0 0.001 0.183 0.001 0.001
0.183 0 0.001 0.184 0.001 0.001 0.184 0 0.001 0.185
0.001 0.001 0.185 0 0.001 0.186 0.001 0.001 0.186 0
0.001 0.187 0.001 0.001 0.187 0 0.001 0.188 0.001 0.001
0.188 0 0.001 0.189 0.001 0.001 0.189 0 0.001 0.19
0.001 0.001 0.19 0 0.001 0.191 0.001 0.001 0.191 0
0.001 0.192 0.001 0.001 0.192 0 0.001 0.193 0.001 0.001
0.193 0 0.001 0.194 0.001 0.001 0.194 0 0.001 0.195
0.001 0.001 0.195 0 0.001 0.196 0.001 0.001 0.196 0
0.001 0.197 0.001 0.001 0.197 0 0.001 0.198 0.001 0.001
0.198 0 0.001 0.199 0.001 0.001 0.199 0 0.001 0.2
0.001 0.001 0.2 0 0.001 0.201 0.001 0.001 0.201 0
0.001 0.202 0.001 0.001 0.202 0 0.001 0.203 0.001 0.001
0.203 0 0.001 0.204 0.001 0.001 0.204 0 0.001 0.205
0.001 0.001 0.205 0 0.001 0.206 0.001 0.001 0.206 0
0.001 0.207 0.001 0.001 0.207 0 0.001 0.208 0.001 0.001
0.208 0 0.001 0.209 0.001 0.001 0.209 0 0.001 0.21
0.001 0.001 0.21 0 0.001 0.211 0.001 0.001 0.211 0
0.001 0.212 0.001 0.001 0.212 0 0.001 0.213 0.001 0.001
0.213 0 0.001 0.214 0.001 0.001 0.214 0 0.001 0.215
0.001 0.001 0.215 0 0.001 0.216 0.001 0.001 0.216 0
0.001 0.217 0.001 0.001 0.217 0 0.001 0.218 0.001 0.001
0.218 0 0.001 0.219 0.001 0.001 0.219 0 0.001 0.22
0.001 0.001 0.22 0 0.001 0.221 0.001 0.001 0.221 0
0.001 0.222 0.001 0.001 0.222 0 0.001 0.223 0.001 0.001
0.223 0 0.001 0.224 0.001 0.001 0.224 0 0.001 0.225
0.001 0.001 0.225 0 0.001 0.226 0.001 0.001 0.226 0
0.001 0.227 0.001 0.001 0.227 0 0.001 0.228 0.001 0.001
0.228 0 0.001 0.229 0.001 0.001 0.229 0 0.001 0.23
0.001 0.001 0.23 0 0.001 0.231 0.001 0.001 0.231 0
0.001 0.232 0.001 0.001 0.232 0 0.001 0.233 0.001 0.001
0.233 0 0.001 0.234 0.001 0.001 0.234 0 0.001 0.235
0.001 0.001 0.235 0 0.001 0.236 0.001 0.001 0.236 0
0.001 0.237 0.001 0.001 0.237 0 0.001 0.238 0.001 0.001
0.238 0 0.001 0.239 0.001 0.001 0.239 0 0.001 0.24
0.001 0.001 0.24 0 0.001 0.241 0.001 0.001 0.241 0
0.001 0.242 0.001 0.001 0.242 0 0.001 0.243 0.001 0.001
0.243 0 0.001 0.244 0.001 0.001 0.244 0 0.001 0.245
0.001 0.001 0.245 0 0.001 0.246 0.001 0.001 0.246 0
0.001 0.247 0.001 0.001 0.247 0 0.001 0.248 0.001 0.001
0.248 0 0.001 0.249 0.001 0.001 0.249 0 0.001 0.25
0.001 0.001 0.25 0 0.001 0.251 0.001 0.001 0.251 0
0.001 0.252 0.001 0.001 0.252 0 0.001 0.253 0.001 0.001
0.253 0 0.001 0.254 0.001 0.001 0.254 0 0.001 0.255
0.001 0.001 0.255 0 0.001 0.256 0.001 0.001 0.256 0
0.001 0.257 0.001 0.001 0.257 0 0.001 0.258 0.001 0.001
0.258 0 0.001 0.259 0.001 0.001 0.259 0 0.001 0.26
0.001 0.001 0.26 0 0.001 0.261 0.001 0.001 0.261 0
0.001 0.262 0.001 0.001 0.262 0 0.001 0.263 0.001 0.001
0.263 0 0.001 0.264 0.001 0.001 0.264 0 0.001 0.265
0.001 0.001 0.265 0 0.001 0.266 0.001 0.001 0.266 0
0.001 0.267 0.001 0.001 0.267 0 0.001 0.268 0.001 0.001
0.268 0 0.001 0.269 0.001 0.001 0.269 0 0.001 0.27
0.001 0.001 0.27 0 0.001 0.271 0.001 0.001 0.271 0
0.001 0.272 0.001 0.001 0.272 0 0.001 0.273 0.001 0.001
0.273 0 0.001 0.274 0.001 0.001 0.274 0 0.001 0.275
0.001 0.001 0.275 0 0.001 0.276 0.001 0.001 0.276 0
0.001 0.277 0.001 0.001 0.277 0 0.001 0.278 0.001 0.001
0.278 0 0.001 0.279 0.001 0.001 0.279 0 0.001 0.28
0.001 0.001 0.28 0 0.001 0.281 0.001 0.001 0.281 0
0.001 0.282 0.001 0.001 0.282 0 0.001 0.283 0.001 0.001
0.283 0 0.001 0.284 0.001 0.001 0.284 0 0.001 0.285
0.001 0.001 0.285 0 0.001 0.286 0.001 0.001 0.286 0
0.001 0.287 0.001 0.001 0.287 0 0.001 0.288 0.001 0.001
0.288 0 0.001 0.289 0.001 0.001 0.289 0 0.001 0.29
0.001 0.001 0.29 0 0.001 0.291 0.001 0.001 0.291 0
0.001 0.292 0.001 0.001 0.292 0 0.001 0.293 0.001 0.001
0.293 0 0.001 0.294 0.001 0.001 0.294 0 0.001 0.295
0.001 0.001 0.295 0 0.001 0.296 0.001 0.001 0.296 0
0.001 0.297 0.001 0.001 0.297 0 0.001 0.298 0.001 0.001
0.298 0 0.001 0.299 0.001 0.001 0.299 0 0.001 0.3
0.001 0.001 0.3 0 0.001 0.301 0.001 0.001 0.301 0
0.001 0.302 0.001 0.001 0.302 0 0.001 0.303 0.001 0.001
0.303 0 0.001 0.304 0.001 0.001 0.304 0 0.001 0.305
0.001 0.001 0.305 0 0.001 0.306 0.001 0.001 0.306 0
0.001 0.307 0.001 0.001 0.307 0 0.001 0.308 0.001 0.001
0.308 0 0.001 0.309 0.001 0.001 0.309 0 0.001 0.31
0.001 0.001 0.31 0 0.001 0.311 0.001 0.001 0.311 0
[...]
POINT_DATA 8421
FIELD attributes 2
N1 1 8421 float
0.959067 1 0.98287 0.943321 0.922846 0.904243 0.892091 0.872576 0.863475 0.843558 0.836428
0.816391 0.810736 0.790754 0.786147 0.766321 0.762456 0.742844 0.739511 0.720154 0.717201
0.698127 0.695442 0.676674 0.674172 0.65573 0.653347 0.635247 0.632935 0.615191 0.612915
0.595539 0.593274 0.576275 0.574002 0.55739 0.555098 0.538879 0.536561 0.520741 0.518394
0.502977 0.5006 0.485589 0.483185 0.468582 0.466152 0.451958 0.449507 0.435721 0.433255
0.419877 0.4174 0.404427 0.401945 0.389374 0.386893 0.374721 0.372245 0.360467 0.358003
0.346614 0.344166 0.33316 0.330732 0.320103 0.3177 0.307442 0.305067 0.295172 0.292829
0.28329 0.280982 0.27179 0.269519 0.260668 0.258436 0.249916 0.247725 0.239529 0.237381
0.2295 0.227395 0.21982 0.217759 0.210483 0.208467 0.20148 0.199509 0.192803 0.190877
0.184444 0.182563 0.176394 0.174559 0.168645 0.166854 0.161188 0.159442 0.154015 0.152313
0.147117 0.145459 0.140487 0.138871 0.134114 0.132541 0.127992 0.126461 0.122113 0.120622
0.116468 0.115018 0.111049 0.109639 0.10585 0.104479 0.100863 0.0995306 0.09608 0.0947856
0.0914947 0.0902375 0.0871001 0.0858793 0.0828894 0.0817045 0.0788561 0.0777064 0.074994 0.0738789
0.0712969 0.0702156 0.0677588 0.0667108 0.0643739 0.0633586 0.0611366 0.0601534 0.0580415 0.0570896
0.0550833 0.0541622 0.0522568 0.0513659 0.049557 0.0486957 0.0469792 0.0461469 0.0445187 0.0437148
0.042171 0.0413948 0.0399317 0.0391827 0.0377965 0.0370741 0.0357613 0.0350649 0.0338223 0.0331512
0.0319754 0.0313292 0.0302171 0.029595 0.0285437 0.0279452 0.0269517 0.0263763 0.0254378 0.0248848
0.0239988 0.0234676 0.0226314 0.0221215 0.0213327 0.0208435 0.0200997 0.0196306 0.0189295 0.01848
0.0178196 0.0173891 0.0167672 0.0163551 0.0157698 0.0153755 0.0148249 0.0144479 0.0139302 0.01357
0.0130833 0.0127394 0.0122822 0.011954 0.0115247 0.0112116 0.0108087 0.0105103 0.0101323 0.00984802
0.00949365 0.009223 0.00889089 0.00863338 0.0083223 0.00807745 0.0077862 0.00755354 0.007281 0.00706005
0.00680515 0.00659546 0.00635717 0.00615829 0.00593565 0.00574715 0.00553924 0.00536068 0.00516662 0.0049976
0.00481657 0.00465668 0.00448788 0.00433672 0.00417941 0.00403661 0.00389009 0.00375526 0.00361886 0.00349165
0.00336475 0.0032448 0.00312678 0.00301376 0.00290408 0.00279765 0.00269576 0.00259561 0.00250102 0.00240684
0.00231907 0.00223056 0.00214916 0.00206605 0.0019906 0.00191259 0.0018427 0.00176954 0.00170484 0.00163627
0.00157639 0.00151218 0.0014568 0.0013967 0.00134552 0.0012893 0.00124203 0.00118948 0.00114584 0.00109676
0.00105649 0.00101068 0.000973539 0.00093081 0.000896584 0.000856755 0.000825229 0.00078813 0.000759109 0.000724576
0.000697877 0.000665753 0.000641205 0.000611345 0.000588786 0.000561049 0.000540332 0.000514585 0.00049557 0.000471686
0.000454244 0.000432105 0.000416115 0.000395607 0.000380957 0.000361973 0.000348559 0.000330998 0.000318723 0.00030249
0.000291264 0.000276269 0.000266009 0.000252167 0.000242796 0.000230027 0.000221472 0.000209702 0.000201897 0.000191055
0.000183939 0.000173959 0.000167475 0.000158295 0.00015239 0.000143952 0.000138578 0.000130827 0.00012594 0.000118825
0.000114383 0.000107856 0.000103821 9.78389e-05 9.41763e-05 8.86964e-05 8.53736e-05 8.03577e-05 7.73451e-05 7.27571e-05
7.00274e-05 6.58339e-05 6.33621e-05 5.95318e-05 5.7295e-05 5.37989e-05 5.1776e-05 4.85872e-05 4.67589e-05 4.38525e-05
4.22012e-05 3.9554e-05 3.80635e-05 3.56541e-05 3.43095e-05 3.21182e-05 3.09061e-05 2.89145e-05 2.78224e-05 2.60136e-05
2.50304e-05 2.33887e-05 2.25041e-05 2.10152e-05 2.02198e-05 1.88704e-05 1.81556e-05 1.69336e-05 1.62917e-05 1.51858e-05
1.46097e-05 1.36096e-05 1.30929e-05 1.2189e-05 1.17259e-05 1.09097e-05 1.04949e-05 9.75835e-06 9.38703e-06 8.72281e-06
8.39065e-06 7.7921e-06 7.49515e-06 6.95616e-06 6.69087e-06 6.20585e-06 5.969e-06 5.53287e-06 5.32154e-06 4.92964e-06
4.74121e-06 4.38931e-06 4.22141e-06 3.90565e-06 3.75614e-06 3.47301e-06 3.33996e-06 3.08627e-06 2.96795e-06 2.7408e-06
2.63564e-06 2.4324e-06 2.339e-06 2.15728e-06 2.07439e-06 1.91203e-06 1.8385e-06 1.69354e-06 1.62837e-06 1.49903e-06
1.4413e-06 1.32599e-06 1.27488e-06 1.17215e-06 1.12694e-06 1.03547e-06 9.95501e-07 9.14128e-07 8.78816e-07 8.06472e-07
7.75295e-07 7.11025e-07 6.83517e-07 6.26459e-07 6.02205e-07 5.51586e-07 5.30214e-07 4.85341e-07 4.66521e-07 4.26769e-07
4.10208e-07 3.75016e-07 3.60453e-07 3.29322e-07 3.16523e-07 2.89003e-07 2.77763e-07 2.53452e-07 2.43588e-07 2.22128e-07
2.13475e-07 1.94545e-07 1.86961e-07 1.70274e-07 1.63632e-07 1.48933e-07 1.43118e-07 1.30179e-07 1.25093e-07 1.13712e-07
1.09266e-07 9.92616e-08 9.53777e-08 8.659e-08 8.31994e-08 7.54858e-08 7.25278e-08 6.57619e-08 6.31829e-08 5.72525e-08
5.50056e-08 4.9811e-08 4.78547e-08 4.3308e-08 4.16057e-08 3.76289e-08 3.61487e-08 3.26727e-08 3.13866e-08 2.83505e-08
2.72337e-08 2.45837e-08 2.36145e-08 2.13032e-08 2.04627e-08 1.84482e-08 1.77198e-08 1.59651e-08 1.53343e-08 1.38071e-08
1.32612e-08 1.19329e-08 1.14607e-08 1.03062e-08 9.89802e-09 8.89529e-09 8.54276e-09 7.67246e-09 7.36817e-09 6.61333e-09
6.35085e-09 5.69662e-09 5.47035e-09 4.90371e-09 4.70879e-09 4.21836e-09 4.05056e-09 3.62639e-09 3.48203e-09 3.11542e-09
2.9913e-09 2.67466e-09 2.56803e-09 2.29474e-09 2.20319e-09 1.96748e-09 1.88892e-09 1.68576e-09 1.61841e-09 1.44343e-09
1.38571e-09 1.23511e-09 1.18569e-09 1.05616e-09 1.01386e-09 9.02532e-10 8.66363e-10 7.70741e-10 7.39831e-10 6.57759e-10
6.3136e-10 5.60966e-10 5.38435e-10 4.781e-10 4.58883e-10 4.07205e-10 3.90826e-10 3.46593e-10 3.32641e-10 2.94807e-10
2.82932e-10 2.50594e-10 2.40492e-10 2.1287e-10 2.04282e-10 1.80705e-10 1.7341e-10 1.533e-10 1.47106e-10 1.29964e-10
1.2471e-10 1.10108e-10 1.05653e-10 9.32241e-11 8.94494e-11 7.8877e-11 7.56809e-11 6.66939e-11 6.39895e-11 5.63554e-11
5.40685e-11 4.75881e-11 4.56556e-11 4.01583e-11 3.85263e-11 3.38661e-11 3.24889e-11 2.85411e-11 2.73795e-11 2.40375e-11
2.30585e-11 2.02313e-11 1.94067e-11 1.70165e-11 1.63225e-11 1.43032e-11 1.37194e-11 1.20146e-11 1.15239e-11 1.00856e-11
9.67338e-12 8.46078e-12 8.1147e-12 7.09305e-12 6.8027e-12 5.94253e-12 5.6991e-12 4.97536e-12 4.77141e-12 4.16288e-12
3.99211e-12 3.48081e-12 3.33791e-12 2.90858e-12 2.78909e-12 2.42884e-12 2.32899e-12 2.0269e-12 1.94352e-12 1.69038e-12
1.62079e-12 1.40881e-12 1.35076e-12 1.17337e-12 1.125e-12 9.76646e-13 9.36352e-13 8.12374e-13 7.78834e-13 6.75293e-13
6.47393e-13 5.60979e-13 5.37785e-13 4.65713e-13 4.46444e-13 3.86374e-13 3.70377e-13 3.20344e-13 3.07071e-13 2.65426e-13
2.5442e-13 2.1978e-13 2.10661e-13 1.81866e-13 1.74315e-13 1.50395e-13 1.44146e-13 1.2429e-13 1.19122e-13 1.0265e-13
9.83786e-14 8.47227e-14 8.11949e-14 6.98812e-14 6.69694e-14 5.76025e-14 5.52006e-14 4.74507e-14 4.54707e-14 3.90629e-14
3.74318e-14 3.21371e-14 3.07942e-14 2.64222e-14 2.53174e-14 2.17097e-14 2.08013e-14 1.78262e-14 1.70798e-14 1.4628e-14
1.40151e-14 1.19959e-14 1.14929e-14 9.83115e-15 9.41863e-15 8.05187e-15 7.71378e-15 6.5904e-15 6.31348e-15 5.39075e-15
5.16408e-15 4.40666e-15 4.22124e-15 3.59992e-15 3.44834e-15 2.93899e-15 2.81516e-15 2.39789e-15 2.29678e-15 1.95516e-15
1.87267e-15 1.59316e-15 1.5259e-15 1.29736e-15 1.24255e-15 1.05581e-15 1.01117e-15 8.58692e-16 8.22363e-16 6.97932e-16
6.68383e-16 5.66909e-16 5.42891e-16 4.60192e-16 4.40682e-16 3.73328e-16 3.5749e-16 3.02669e-16 2.8982e-16 2.45228e-16
2.34811e-16 1.98564e-16 1.90123e-16 1.60678e-16 1.53843e-16 1.29939e-16 1.24407e-16 1.05014e-16 1.00541e-16 8.48172e-17
8.12019e-17 6.84618e-17 6.55416e-17 5.52255e-17 5.28684e-17 4.45205e-17 4.26189e-17 3.5868e-17 3.4335e-17 2.88791e-17
2.7644e-17 2.32375e-17 2.2243e-17 1.86863e-17 1.7886e-17 1.50171e-17 1.43735e-17 1.20609e-17 1.15437e-17 9.68057e-18
9.26516e-18 7.76521e-18 7.43177e-18 6.22494e-18 5.95746e-18 4.9871e-18 4.77267e-18 3.99293e-18 3.82113e-18 3.19496e-18
3.05741e-18 2.55489e-18 2.44482e-18 2.04178e-18 1.95376e-18 1.63071e-18 1.56036e-18 1.3016e-18 1.24541e-18 1.03827e-18
9.93423e-19 8.27707e-19 7.9193e-19 6.59439e-19 6.30917e-19 5.25057e-19 5.02331e-19 4.17802e-19 3.99707e-19 3.32253e-19
3.17854e-19 2.64059e-19 2.52607e-19 2.09733e-19 2.00632e-19 1.66482e-19 1.59253e-19 1.32069e-19 1.26331e-19 1.04706e-19
1.00153e-19 8.29612e-20 7.93518e-20 6.56924e-20 6.28325e-20 5.19865e-20 4.97218e-20 4.11152e-20 3.93229e-20 3.24975e-20
3.108e-20 2.56705e-20 2.45501e-20 2.02654e-20 1.93803e-20 1.59887e-20 1.52899e-20 1.26069e-20 1.20556e-20 9.93438e-21
9.49966e-21 7.82369e-21 7.48111e-21 6.15772e-21 5.88792e-21 4.84359e-21 4.63123e-21 3.80762e-21 3.64057e-21 2.99143e-21
2.86011e-21 2.34879e-21 2.24561e-21 1.8431e-21 1.76209e-21 1.44544e-21 1.38186e-21 1.1329e-21 1.08304e-21 8.87434e-22
8.48356e-22 6.94764e-22 6.64152e-22 5.4364e-22 5.19674e-22 4.25191e-22 4.06438e-22 3.32432e-22 3.17765e-22 2.59869e-22
2.48402e-22 2.03186e-22 1.94222e-22 1.59001e-22 1.51992e-22 1.24673e-22 1.19188e-22 9.815e-23 9.38479e-23 7.78529e-23
7.44627e-23 6.25859e-23 5.98897e-23 5.14684e-23 4.9287e-23 4.38857e-23 4.20655e-23 3.9454e-23 3.78532e-23 3.67936e-23
3.79915e-23 0.967474 1 0.936471 0.907839 0.880502 0.854237 0.82897 0.804577 0.780935
0.757937 0.7355 0.713559 0.692064 0.670979 0.650279 0.629948 0.609976 0.590359 0.571097
0.552192 0.533648 0.515471 0.497668 0.480245 0.463209 0.446564 0.430317 0.414473 0.399033
0.384002 0.369379 0.355167 0.341364 0.327969 0.314978 0.30239 0.290199 0.2784 0.266989
0.255958 0.245301 0.235011 0.22508 0.2155 0.206263 0.19736 0.188784 0.180524 0.172574
0.164923 0.157563 0.150486 0.143683 0.137145 0.130864 0.124833 0.119042 0.113484 0.108151
0.103036 0.0981305 0.0934285 0.0889223 0.0846052 0.0804706 0.0765119 0.0727228 0.0690972 0.0656292
0.062313 0.059143 0.0561136 0.0532198 0.0504563 0.0478182 0.0453007 0.0428991 0.0406089 0.0384258
0.0363455 0.0343639 0.0324771 0.0306812 0.0289725 0.0273475 0.0258026 0.0243345 0.02294 0.0216159
0.0203593 0.0191671 0.0180366 0.0169651 0.01595 0.0149886 0.0140786 0.0132177 0.0124035 0.0116339
0.0109068 0.0102202 0.00957211 0.00896072 0.00838422 0.00784088 0.00732907 0.00684719 0.00639374 0.00596725
0.00556633 0.00518964 0.00483592 0.00450393 0.00419251 0.00390055 0.00362697 0.00337077 0.00313096 0.00290664
0.0026969 0.00250093 0.00231791 0.00214709 0.00198775 0.0018392 0.0017008 0.00157192 0.00145197 0.00134042
0.00123672 0.00114039 0.00105096 0.000967975 0.000891025 0.000819711 0.000753663 0.000692528 0.000635975 0.000583694
0.000535392 0.000490793 0.00044964 0.00041169 0.000376716 0.000344504 0.000314855 0.000287583 0.000262513 0.000239482
0.000218337 0.000198937 0.000181149 0.000164849 0.000149923 0.000136264 0.000123772 0.000112355 0.000101928 9.24099e-05
8.37282e-05 7.58145e-05 6.86055e-05 6.20427e-05 5.60722e-05 5.06441e-05 4.57124e-05 4.12347e-05 3.71719e-05 3.3488e-05
3.01499e-05 2.71272e-05 2.43918e-05 2.19182e-05 1.96827e-05 1.76639e-05 1.58419e-05 1.41986e-05 1.27176e-05 1.13837e-05
1.01831e-05 9.10318e-06 8.13251e-06 7.26061e-06 6.47797e-06 5.77592e-06 5.14659e-06 4.58284e-06 4.07817e-06 3.6267e-06
3.2231e-06 2.86253e-06 2.54063e-06 2.25345e-06 1.99742e-06 1.76931e-06 1.56622e-06 1.38553e-06 1.22488e-06 1.08214e-06
9.55404e-07 8.42953e-07 7.43247e-07 6.54901e-07 5.76674e-07 5.07455e-07 4.4625e-07 3.92166e-07 3.44409e-07 3.02267e-07
2.65106e-07 2.32359e-07 2.03522e-07 1.78146e-07 1.5583e-07 1.36219e-07 1.18997e-07 1.03883e-07 9.06289e-08 7.9013e-08
6.88402e-08 5.99372e-08 5.2151e-08 4.5346e-08 3.94028e-08 3.42158e-08 2.96918e-08 2.57488e-08 2.23146e-08 1.93256e-08
1.67258e-08 1.44661e-08 1.25034e-08 1.07998e-08 9.32208e-09 8.04123e-09 6.93175e-09 5.97137e-09 5.14063e-09 4.42253e-09
3.80221e-09 3.26672e-09 2.80479e-09 2.40657e-09 2.06352e-09 1.7682e-09 1.51414e-09 1.29572e-09 1.10807e-09 9.4697e-10
8.08755e-10 6.90255e-10 5.88728e-10 5.01801e-10 4.27425e-10 3.63833e-10 3.09496e-10 2.631e-10 2.23512e-10 1.89754e-10
1.60989e-10 1.36494e-10 1.1565e-10 9.79237e-11 8.286e-11 7.00673e-11 5.92105e-11 5.00031e-11 4.21996e-11 3.55904e-11
2.99967e-11 2.52654e-11 2.12664e-11 1.78886e-11 1.50374e-11 1.26324e-11 1.06051e-11 8.89723e-12 7.45954e-12 6.25007e-12
5.23327e-12 4.37902e-12 3.66182e-12 3.06008e-12 2.55556e-12 2.13282e-12 1.77885e-12 1.48266e-12 1.23498e-12 1.02801e-12
8.55163e-13 7.10919e-13 5.9062e-13 4.90359e-13 4.06854e-13 3.3735e-13 2.79539e-13 2.31484e-13 1.91567e-13 1.5843e-13
1.3094e-13 1.08151e-13 8.92698e-14 7.36376e-14 6.07036e-14 5.00092e-14 4.11724e-14 3.38752e-14 2.78535e-14 2.28875e-14
1.87948e-14 1.5424e-14 1.26497e-14 1.03678e-14 8.49203e-15 6.95121e-15 5.68632e-15 4.64864e-15 3.79789e-15 3.10087e-15
2.53015e-15 2.06317e-15 1.6813e-15 1.36925e-15 1.1144e-15 9.06412e-16 7.36775e-16 5.98507e-16 4.85879e-16 3.94197e-16
3.19613e-16 2.58977e-16 2.09712e-16 1.69712e-16 1.37255e-16 1.10936e-16 8.96072e-17 7.23337e-17 5.83534e-17 4.70456e-17
3.79054e-17 3.05218e-17 2.45612e-17 1.97522e-17 1.5875e-17 1.27508e-17 1.02352e-17 8.2107e-18 6.58258e-18 5.27402e-18
4.22298e-18 3.3793e-18 2.7025e-18 2.15991e-18 1.72519e-18 1.37712e-18 1.0986e-18 8.75864e-19 6.97859e-19 5.55689e-19
4.42211e-19 3.51691e-19 2.79528e-19 2.22037e-19 1.76262e-19 1.39838e-19 1.10874e-19 8.78548e-20 6.95726e-20 5.50613e-20
4.35503e-20 3.44248e-20 2.7195e-20 2.14705e-20 1.69408e-20 1.33586e-20 1.05275e-20 8.29144e-21 6.52636e-21 5.13394e-21
4.03617e-21 3.17122e-21 2.49015e-21 1.95417e-21 1.53265e-21 1.20135e-21 9.41119e-22 7.36845e-22 5.76605e-22 4.50999e-22
3.52626e-22 2.7566e-22 2.15528e-22 1.68643e-22 1.32205e-22 1.04037e-22 8.24624e-23 6.62135e-23 5.43563e-23 4.62426e-23
4.14788e-23 3.99005e-23 0.973616 1 0.946627 0.920248 0.894505 0.869399 0.844922 0.821042
0.797708 0.774866 0.752471 0.730483 0.708873 0.68762 0.666708 0.646131 0.625885 0.605971
0.586394 0.567159 0.548275 0.529748 0.511588 0.493803 0.476401 0.459389 0.442775 0.426562
0.410757 0.395362 0.380379 0.36581 0.351655 0.337913 0.324582 0.311659 0.299139 0.287019
0.275293 0.263955 0.252998 0.242416 0.2322 0.222343 0.212837 0.203674 0.194844 0.186339
0.17815 0.170269 0.162686 0.155394 0.148383 0.141644 0.135169 0.12895 0.122979 0.117247
0.111747 0.10647 0.10141 0.096558 0.0919082 0.087453 0.0831856 0.0790994 0.0751879 0.0714448
0.0678641 0.0644398 0.0611661 0.0580375 0.0550485 0.0521939 0.0494686 0.0468676 0.0443862 0.0420197
0.0397637 0.0376137 0.0355656 0.0336153 0.0317588 0.0299924 0.0283122 0.0267149 0.0251968 0.0237546
0.0223852 0.0210855 0.0198523 0.0186828 0.0175743 0.0165239 0.0155292 0.0145875 0.0136965 0.0128539
0.0120573 0.0113046 0.0105938 0.00992286 0.00928981 0.00869284 0.00813017 0.0076001 0.00710099 0.00663128
0.00618946 0.00577409 0.0053838 0.00501727 0.00467323 0.00435048 0.00404786 0.00376428 0.00349868 0.00325006
0.00301746 0.00279998 0.00259675 0.00240693 0.00222975 0.00206446 0.00191035 0.00176675 0.00163302 0.00150856
0.00139278 0.00128515 0.00118516 0.00109232 0.00100616 0.000926262 0.000852208 0.000783615 0.000720118 0.000661375
0.000607064 0.000556881 0.000510541 0.000467777 0.000428338 0.000391987 0.000358504 0.000327683 0.000299329 0.000273261
0.000249312 0.000227321 0.000207143 0.00018864 0.000171683 0.000156154 0.000141941 0.000128942 0.00011706 0.000106206
9.62988e-05 8.72606e-05 7.9021e-05 7.15143e-05 6.46798e-05 5.84615e-05 5.28075e-05 4.767e-05 4.30049e-05 3.87717e-05
3.49328e-05 3.14539e-05 2.83034e-05 2.5452e-05 2.28732e-05 2.05425e-05 1.84374e-05 1.65373e-05 1.48235e-05 1.32787e-05
1.18871e-05 1.06345e-05 9.50775e-06 8.49483e-06 7.58488e-06 6.76799e-06 6.03515e-06 5.37814e-06 4.78953e-06 4.26255e-06
3.79107e-06 3.36953e-06 2.9929e-06 2.65662e-06 2.35658e-06 2.08905e-06 1.85068e-06 1.63842e-06 1.44956e-06 1.28161e-06
1.13238e-06 9.9987e-07 8.8228e-07 7.78005e-07 6.856e-07 6.03771e-07 5.31357e-07 4.67318e-07 4.10725e-07 3.60747e-07
3.1664e-07 2.77741e-07 2.4346e-07 2.13268e-07 1.86696e-07 1.63327e-07 1.42788e-07 1.24749e-07 1.08916e-07 9.50299e-08
8.28589e-08 7.21987e-08 6.28682e-08 5.47071e-08 4.75737e-08 4.1343e-08 3.59044e-08 3.11605e-08 2.70254e-08 2.34235e-08
2.02881e-08 1.75607e-08 1.51899e-08 1.31304e-08 1.13425e-08 9.79164e-09 8.44718e-09 7.28247e-09 6.27418e-09 5.4019e-09
4.6478e-09 3.99631e-09 3.43386e-09 2.94861e-09 2.53025e-09 2.16981e-09 1.85947e-09 1.59247e-09 1.36289e-09 1.16564e-09
9.96281e-10 8.50961e-10 7.26355e-10 6.19584e-10 5.28158e-10 4.49925e-10 3.83026e-10 3.25858e-10 2.7704e-10 2.35379e-10
1.99851e-10 1.69573e-10 1.43787e-10 1.21842e-10 1.03178e-10 8.73157e-11 7.3843e-11 6.24079e-11 5.27089e-11 4.44879e-11
3.75244e-11 3.16301e-11 2.66441e-11 2.24293e-11 1.88688e-11 1.58631e-11 1.33274e-11 1.11897e-11 9.38877e-12 7.87249e-12
6.59677e-12 5.52416e-12 4.62292e-12 3.86619e-12 3.23121e-12 2.69876e-12 2.25257e-12 1.87893e-12 1.56624e-12 1.30474e-12
1.08619e-12 9.03662e-13 7.51317e-13 6.24249e-13 5.18335e-13 4.30111e-13 3.56672e-13 2.95581e-13 2.44795e-13 2.02603e-13
1.67575e-13 1.38513e-13 1.14418e-13 9.44528e-14 7.79213e-14 6.42417e-14 5.29296e-14 4.35813e-14 3.5861e-14 2.94894e-14
2.42342e-14 1.99028e-14 1.63351e-14 1.33983e-14 1.09825e-14 8.99647e-15 7.3649e-15 6.02537e-15 4.92633e-15 4.02519e-15
3.28679e-15 2.68214e-15 2.18733e-15 1.78267e-15 1.45195e-15 1.18184e-15 9.61363e-16 7.81523e-16 6.34924e-16 5.15497e-16
4.1827e-16 3.39166e-16 2.74849e-16 2.22589e-16 1.80151e-16 1.45713e-16 1.17784e-16 9.51485e-17 7.68148e-17 6.19748e-17
4.99705e-17 4.02661e-17 3.24261e-17 2.60963e-17 2.09889e-17 1.68706e-17 1.3552e-17 1.08793e-17 8.72837e-18 6.99832e-18
5.60769e-18 4.49061e-18 3.59383e-18 2.87436e-18 2.2975e-18 1.83528e-18 1.46515e-18 1.16894e-18 9.32041e-19 7.42695e-19
5.91452e-19 4.70718e-19 3.74401e-19 2.97609e-19 2.36422e-19 1.87701e-19 1.48928e-19 1.18093e-19 9.35849e-20 7.41179e-20
5.86645e-20 4.64049e-20 3.6685e-20 2.89834e-20 2.28848e-20 1.80585e-20 1.42414e-20 1.12244e-20 8.84115e-21 6.95975e-21
5.47542e-21 4.30506e-21 3.38283e-21 2.65657e-21 2.08499e-21 1.63541e-21 1.28202e-21 1.00441e-21 7.86473e-22 6.15494e-22
4.81455e-22 3.76461e-22 2.94302e-22 2.30098e-22 1.80024e-22 1.4109e-22 1.10972e-22 8.78808e-23 7.04621e-23 5.77205e-23
4.89692e-23 4.38045e-23 4.20856e-23 0.97754 1 0.95383 0.929775 0.905773 0.881991 0.858497
0.835321 0.81247 0.789938 0.767717 0.745796 0.724169 0.70283 0.68178 0.66102 0.640557
0.620399 0.600554 0.581035 0.56185 0.543013 0.524534 0.506423 0.48869 0.471345 0.454395
0.437847 0.421706 0.405977 0.390663 0.375766 0.361286 0.347224 0.333577 0.320343 0.30752
0.295101 0.283083 0.271459 0.260224 0.24937 0.238889 0.228775 0.219018 0.209611 0.200545
0.19181 0.1834 0.175303 0.167513 0.160019 0.152813 0.145886 0.13923 0.132836 0.126695
0.120801 0.115143 0.109715 0.104509 0.0995176 0.0947329 0.090148 0.085756 0.0815501 0.0775235
0.07367 0.0699833 0.0664573 0.0630861 0.059864 0.0567854 0.053845 0.0510375 0.0483578 0.0458012
0.0433627 0.0410378 0.0388221 0.0367111 0.0347008 0.032787 0.0309658 0.0292335 0.0275864 0.0260209
0.0245337 0.0231213 0.0217806 0.0205085 0.019302 0.0181582 0.0170744 0.0160479 0.0150761 0.0141565
0.0132867 0.0124644 0.0116873 0.0109534 0.0102606 0.00960687 0.00899034 0.00840917 0.00786162 0.00734601
0.00686073 0.00640421 0.00597499 0.00557164 0.00519281 0.00483719 0.00450355 0.00419068 0.00389747 0.00362282
0.00336571 0.00312514 0.00290018 0.00268994 0.00249356 0.00231023 0.00213919 0.0019797 0.00183107 0.00169264
0.00156379 0.00144392 0.00133248 0.00122893 0.00113278 0.00104354 0.000960769 0.000884049 0.000812978 0.00074718
0.000686302 0.000630011 0.000577992 0.000529952 0.000485614 0.000444718 0.000407021 0.000372294 0.000340324 0.00031091
0.000283865 0.000259014 0.000236194 0.000215252 0.000196046 0.000178443 0.00016232 0.000147562 0.000134063 0.000121723
0.000110449 0.000100157 9.07668e-05 8.22053e-05 7.44045e-05 6.73014e-05 6.08379e-05 5.49602e-05 4.96189e-05 4.47682e-05
4.0366e-05 3.63734e-05 3.27548e-05 2.94773e-05 2.65107e-05 2.38274e-05 2.14019e-05 1.92109e-05 1.72331e-05 1.54489e-05
1.38405e-05 1.23916e-05 1.10871e-05 9.91349e-06 8.85837e-06 7.9104e-06 7.05927e-06 6.29562e-06 5.61091e-06 4.9974e-06
4.44807e-06 3.95653e-06 3.517e-06 3.12425e-06 2.77354e-06 2.46058e-06 2.1815e-06 1.9328e-06 1.71133e-06 1.51424e-06