/*--------------------------------*- C++ -*----------------------------------*\
  =========                 |
  \\      /  F ield         | OpenFOAM: The Open Source CFD Toolbox
   \\    /   O peration     | Website:  https://openfoam.org
    \\  /    A nd           | Version:  dev
     \\/     M anipulation  |
\*---------------------------------------------------------------------------*/
FoamFile
{
    format      ascii;
    class       volScalarField;
    location    "0.56";
    object      cov;
}
// * * * * * * * * * * * * * * * * * * * * * * * * * * * * * * * * * * * * * //

dimensions      [0 0 0 0 0 0 0];

internalField   uniform 0;

boundaryField
{
    frontAndBack
    {
        type            empty;
    }
    inlet
    {
        type            calculated;
        value           uniform 0;
    }
    outlet
    {
        type            calculated;
        value           uniform 0;
    }
    substrate
    {
        type            calculated;
        value           nonuniform List<scalar> 
400
(
0.723392
0.709436
0.699197
0.689838
0.680945
0.672481
0.664346
0.656453
0.648737
0.641155
0.633672
0.626261
0.618904
0.611584
0.604291
0.597014
0.589749
0.582492
0.575238
0.567987
0.560739
0.553493
0.54625
0.539012
0.53178
0.524556
0.517342
0.510141
0.502955
0.495786
0.488637
0.481511
0.474409
0.467335
0.46029
0.453278
0.4463
0.43936
0.432458
0.425598
0.418782
0.412011
0.405288
0.398614
0.391991
0.385422
0.378907
0.372449
0.366049
0.359708
0.353428
0.34721
0.341056
0.334966
0.328941
0.322983
0.317092
0.31127
0.305516
0.299833
0.294219
0.288677
0.283206
0.277807
0.27248
0.267225
0.262044
0.256935
0.251899
0.246936
0.242046
0.237229
0.232486
0.227815
0.223216
0.218691
0.214237
0.209855
0.205545
0.201305
0.197137
0.193038
0.189009
0.18505
0.181159
0.177337
0.173581
0.169893
0.166271
0.162715
0.159223
0.155796
0.152433
0.149132
0.145893
0.142716
0.139599
0.136542
0.133544
0.130604
0.127722
0.124896
0.122127
0.119412
0.116752
0.114145
0.11159
0.109088
0.106636
0.104235
0.101883
0.0995798
0.0973243
0.0951159
0.0929536
0.0908368
0.0887647
0.0867364
0.0847512
0.0828084
0.0809071
0.0790467
0.0772263
0.0754453
0.0737028
0.0719983
0.0703309
0.0687
0.0671049
0.0655448
0.0640192
0.0625273
0.0610684
0.059642
0.0582473
0.0568838
0.0555508
0.0542476
0.0529738
0.0517286
0.0505116
0.049322
0.0481595
0.0470233
0.0459129
0.0448278
0.0437676
0.0427315
0.0417192
0.0407301
0.0397637
0.0388195
0.0378972
0.036996
0.0361158
0.0352559
0.0344159
0.0335954
0.032794
0.0320112
0.0312467
0.0305
0.0297707
0.0290585
0.0283629
0.0276837
0.0270203
0.0263726
0.0257401
0.0251224
0.0245193
0.0239304
0.0233554
0.022794
0.0222458
0.0217106
0.0211881
0.0206779
0.0201799
0.0196936
0.0192189
0.0187555
0.0183031
0.0178615
0.0174304
0.0170095
0.0165987
0.0161977
0.0158062
0.0154242
0.0150512
0.0146871
0.0143318
0.013985
0.0136465
0.0133161
0.0129936
0.0126788
0.0123716
0.0120718
0.0117792
0.0114936
0.0112149
0.0109428
0.0106774
0.0104183
0.0101654
0.00991867
0.00967786
0.00944285
0.00921351
0.00898971
0.0087713
0.00855817
0.00835018
0.00814721
0.00794915
0.00775588
0.00756728
0.00738324
0.00720365
0.00702841
0.0068574
0.00669054
0.00652772
0.00636884
0.00621381
0.00606254
0.00591493
0.0057709
0.00563036
0.00549324
0.00535943
0.00522888
0.00510149
0.0049772
0.00485592
0.00473758
0.00462212
0.00450947
0.00439955
0.0042923
0.00418766
0.00408556
0.00398594
0.00388875
0.00379391
0.00370139
0.00361111
0.00352303
0.0034371
0.00335325
0.00327145
0.00319163
0.00311376
0.00303778
0.00296366
0.00289133
0.00282077
0.00275193
0.00268476
0.00261924
0.0025553
0.00249293
0.00243207
0.0023727
0.00231477
0.00225826
0.00220312
0.00214933
0.00209685
0.00204565
0.00199569
0.00194696
0.00189941
0.00185302
0.00180777
0.00176361
0.00172054
0.00167851
0.00163751
0.00159751
0.00155849
0.00152042
0.00148328
0.00144704
0.00141169
0.0013772
0.00134355
0.00131073
0.0012787
0.00124746
0.00121698
0.00118724
0.00115823
0.00112993
0.00110232
0.00107538
0.0010491
0.00102346
0.000998452
0.000974051
0.000950246
0.000927022
0.000904365
0.000882262
0.000860699
0.000839662
0.000819139
0.000799117
0.000779584
0.000760529
0.000741939
0.000723803
0.00070611
0.000688849
0.00067201
0.000655583
0.000639557
0.000623922
0.000608669
0.000593789
0.000579273
0.000565111
0.000551296
0.000537818
0.000524669
0.000511842
0.000499328
0.00048712
0.00047521
0.000463591
0.000452257
0.000441199
0.000430412
0.000419888
0.000409622
0.000399607
0.000389837
0.000380305
0.000371007
0.000361936
0.000353087
0.000344455
0.000336033
0.000327818
0.000319804
0.000311987
0.00030436
0.000296921
0.000289664
0.000282585
0.00027568
0.000268945
0.000262375
0.000255967
0.000249716
0.00024362
0.000237674
0.000231875
0.000226221
0.000220706
0.000215329
0.000210087
0.000204975
0.000199993
0.000195137
0.000190404
0.000185792
0.0001813
0.000176924
0.000172664
0.000168517
0.000164481
0.000160557
0.000156741
0.000153035
0.000149436
0.000145945
0.000142562
0.000139287
0.000136121
0.000133065
0.000130121
0.000127291
0.000124579
0.000121987
0.000119521
0.000117184
0.000114984
0.000112927
0.000111022
0.000109278
0.000107705
0.000106316
0.000105122
0.000104139
0.000103381
0.000102863
0.000102599
)
;
    }
    Wall
    {
        type            calculated;
        value           nonuniform List<scalar> 
400
(
0.723392
0.709436
0.699198
0.689839
0.680945
0.67248
0.664345
0.656451
0.648735
0.641153
0.633669
0.626259
0.618901
0.611582
0.604288
0.597012
0.589747
0.58249
0.575236
0.567986
0.560737
0.553491
0.546249
0.539011
0.531779
0.524555
0.517341
0.510141
0.502955
0.495786
0.488637
0.481511
0.474409
0.467335
0.460291
0.453279
0.446301
0.439361
0.432459
0.425599
0.418783
0.412012
0.405289
0.398615
0.391993
0.385423
0.378909
0.372451
0.366051
0.35971
0.35343
0.347212
0.341058
0.334967
0.328943
0.322985
0.317094
0.311272
0.305518
0.299835
0.294221
0.288679
0.283208
0.277809
0.272482
0.267227
0.262046
0.256937
0.251901
0.246938
0.242048
0.237231
0.232488
0.227817
0.223219
0.218693
0.214239
0.209857
0.205547
0.201307
0.197139
0.19304
0.189011
0.185052
0.181161
0.177338
0.173583
0.169895
0.166273
0.162717
0.159225
0.155798
0.152434
0.149133
0.145895
0.142717
0.1396
0.136543
0.133545
0.130606
0.127723
0.124898
0.122128
0.119413
0.116753
0.114146
0.111591
0.109089
0.106637
0.104236
0.101884
0.0995809
0.0973254
0.0951169
0.0929547
0.0908379
0.0887657
0.0867374
0.0847522
0.0828094
0.0809081
0.0790476
0.0772272
0.0754461
0.0737037
0.0719991
0.0703318
0.0687008
0.0671057
0.0655456
0.06402
0.062528
0.0610692
0.0596427
0.058248
0.0568845
0.0555514
0.0542483
0.0529744
0.0517293
0.0505122
0.0493227
0.0481601
0.0470239
0.0459135
0.0448284
0.0437681
0.042732
0.0417197
0.0407306
0.0397642
0.03882
0.0378976
0.0369965
0.0361162
0.0352563
0.0344163
0.0335959
0.0327944
0.0320117
0.0312471
0.0305004
0.0297711
0.0290589
0.0283633
0.027684
0.0270207
0.0263729
0.0257404
0.0251227
0.0245196
0.0239307
0.0233557
0.0227943
0.0222461
0.0217109
0.0211884
0.0206782
0.0201801
0.0196939
0.0192192
0.0187558
0.0183034
0.0178617
0.0174306
0.0170097
0.0165989
0.0161979
0.0158065
0.0154244
0.0150514
0.0146874
0.014332
0.0139852
0.0136467
0.0133163
0.0129938
0.012679
0.0123718
0.012072
0.0117793
0.0114938
0.011215
0.010943
0.0106775
0.0104184
0.0101656
0.00991882
0.00967801
0.009443
0.00921366
0.00898985
0.00877144
0.0085583
0.00835031
0.00814734
0.00794928
0.007756
0.0075674
0.00738336
0.00720377
0.00702852
0.00685752
0.00669065
0.00652783
0.00636894
0.00621391
0.00606264
0.00591503
0.005771
0.00563046
0.00549333
0.00535952
0.00522897
0.00510158
0.00497728
0.004856
0.00473766
0.0046222
0.00450955
0.00439962
0.00429237
0.00418773
0.00408563
0.00398601
0.00388881
0.00379398
0.00370145
0.00361118
0.0035231
0.00343716
0.00335331
0.0032715
0.00319169
0.00311381
0.00303784
0.00296371
0.00289139
0.00282082
0.00275198
0.00268481
0.00261928
0.00255535
0.00249297
0.00243212
0.00237274
0.00231481
0.0022583
0.00220316
0.00214937
0.00209689
0.00204568
0.00199573
0.00194699
0.00189944
0.00185306
0.0018078
0.00176365
0.00172057
0.00167854
0.00163754
0.00159754
0.00155852
0.00152045
0.00148331
0.00144707
0.00141172
0.00137723
0.00134358
0.00131075
0.00127873
0.00124748
0.001217
0.00118726
0.00115825
0.00112995
0.00110234
0.0010754
0.00104912
0.00102348
0.000998471
0.000974069
0.000950264
0.000927039
0.000904382
0.000882279
0.000860715
0.000839678
0.000819154
0.000799132
0.000779599
0.000760543
0.000741953
0.000723816
0.000706123
0.000688862
0.000672023
0.000655595
0.000639569
0.000623934
0.000608681
0.0005938
0.000579284
0.000565122
0.000551306
0.000537828
0.000524679
0.000511851
0.000499337
0.000487129
0.000475219
0.0004636
0.000452265
0.000441207
0.00043042
0.000419896
0.00040963
0.000399614
0.000389844
0.000380312
0.000371014
0.000361943
0.000353093
0.000344461
0.000336039
0.000327824
0.00031981
0.000311992
0.000304366
0.000296926
0.000289669
0.00028259
0.000275685
0.000268949
0.000262379
0.000255971
0.00024972
0.000243624
0.000237678
0.000231879
0.000226224
0.00022071
0.000215333
0.00021009
0.000204979
0.000199996
0.00019514
0.000190407
0.000185795
0.000181303
0.000176927
0.000172667
0.000168519
0.000164484
0.000160559
0.000156744
0.000153037
0.000149438
0.000145947
0.000142564
0.000139289
0.000136123
0.000133067
0.000130123
0.000127293
0.000124581
0.000121989
0.000119522
0.000117186
0.000114986
0.000112929
0.000111024
0.00010928
0.000107707
0.000106317
0.000105124
0.000104141
0.000103383
0.000102865
0.0001026
)
;
    }
}


// ************************************************************************* //
