/*--------------------------------*- C++ -*----------------------------------*\
  =========                 |
  \\      /  F ield         | OpenFOAM: The Open Source CFD Toolbox
   \\    /   O peration     | Website:  https://openfoam.org
    \\  /    A nd           | Version:  dev
     \\/     M anipulation  |
\*---------------------------------------------------------------------------*/
FoamFile
{
    format      ascii;
    class       volScalarField;
    location    "0.56";
    object      Exp1;
}
// * * * * * * * * * * * * * * * * * * * * * * * * * * * * * * * * * * * * * //

dimensions      [0 0 0 0 0 0 0];

internalField   uniform 0;

boundaryField
{
    frontAndBack
    {
        type            empty;
    }
    inlet
    {
        type            calculated;
        value           uniform 0;
    }
    outlet
    {
        type            calculated;
        value           uniform 0;
    }
    substrate
    {
        type            calculated;
        value           nonuniform List<scalar> 
400
(
1.99622e-14
6.35801e-14
1.11566e-13
1.63718e-13
2.2007e-13
2.80817e-13
3.46149e-13
4.16265e-13
4.91388e-13
5.71761e-13
6.57641e-13
7.493e-13
8.47017e-13
9.51081e-13
1.06179e-12
1.17944e-12
1.30435e-12
1.43682e-12
1.57718e-12
1.72574e-12
1.88283e-12
2.04878e-12
2.22394e-12
2.40865e-12
2.60326e-12
2.80812e-12
3.02359e-12
3.25006e-12
3.4879e-12
3.73749e-12
3.99923e-12
4.27352e-12
4.56078e-12
4.86142e-12
5.17588e-12
5.50459e-12
5.848e-12
6.20658e-12
6.58079e-12
6.97111e-12
7.37804e-12
7.80207e-12
8.24372e-12
8.70352e-12
9.182e-12
9.67972e-12
1.01972e-11
1.07351e-11
1.1294e-11
1.18744e-11
1.2477e-11
1.31025e-11
1.37514e-11
1.44244e-11
1.51223e-11
1.58456e-11
1.65953e-11
1.73718e-11
1.81761e-11
1.90089e-11
1.98709e-11
2.0763e-11
2.1686e-11
2.26408e-11
2.36281e-11
2.4649e-11
2.57043e-11
2.6795e-11
2.7922e-11
2.90862e-11
3.02888e-11
3.15307e-11
3.2813e-11
3.41368e-11
3.55032e-11
3.69133e-11
3.83683e-11
3.98694e-11
4.14179e-11
4.30149e-11
4.46617e-11
4.63598e-11
4.81104e-11
4.99149e-11
5.17747e-11
5.36914e-11
5.56663e-11
5.7701e-11
5.97972e-11
6.19563e-11
6.418e-11
6.647e-11
6.88281e-11
7.1256e-11
7.37554e-11
7.63283e-11
7.89765e-11
8.1702e-11
8.45067e-11
8.73927e-11
9.03621e-11
9.3417e-11
9.65596e-11
9.9792e-11
1.03117e-10
1.06536e-10
1.10052e-10
1.13667e-10
1.17384e-10
1.21206e-10
1.25134e-10
1.29172e-10
1.33323e-10
1.37589e-10
1.41972e-10
1.46477e-10
1.51105e-10
1.55861e-10
1.60746e-10
1.65765e-10
1.7092e-10
1.76216e-10
1.81654e-10
1.87239e-10
1.92974e-10
1.98862e-10
2.04909e-10
2.11116e-10
2.17489e-10
2.2403e-10
2.30745e-10
2.37636e-10
2.44709e-10
2.51967e-10
2.59414e-10
2.67056e-10
2.74897e-10
2.82941e-10
2.91192e-10
2.99657e-10
3.08339e-10
3.17243e-10
3.26375e-10
3.3574e-10
3.45342e-10
3.55188e-10
3.65282e-10
3.7563e-10
3.86239e-10
3.97112e-10
4.08258e-10
4.1968e-10
4.31386e-10
4.43381e-10
4.55672e-10
4.68265e-10
4.81166e-10
4.94383e-10
5.07921e-10
5.21788e-10
5.3599e-10
5.50535e-10
5.65429e-10
5.80681e-10
5.96296e-10
6.12283e-10
6.2865e-10
6.45403e-10
6.62551e-10
6.80102e-10
6.98063e-10
7.16444e-10
7.35251e-10
7.54494e-10
7.74182e-10
7.94322e-10
8.14923e-10
8.35995e-10
8.57546e-10
8.79586e-10
9.02123e-10
9.25168e-10
9.48729e-10
9.72816e-10
9.97439e-10
1.02261e-09
1.04833e-09
1.07462e-09
1.10149e-09
1.12894e-09
1.15699e-09
1.18564e-09
1.21491e-09
1.24481e-09
1.27535e-09
1.30654e-09
1.33839e-09
1.37092e-09
1.40412e-09
1.43802e-09
1.47263e-09
1.50796e-09
1.54401e-09
1.58081e-09
1.61836e-09
1.65667e-09
1.69576e-09
1.73565e-09
1.77633e-09
1.81782e-09
1.86014e-09
1.9033e-09
1.94732e-09
1.99219e-09
2.03794e-09
2.08458e-09
2.13212e-09
2.18058e-09
2.22996e-09
2.28028e-09
2.33156e-09
2.3838e-09
2.43702e-09
2.49123e-09
2.54645e-09
2.60269e-09
2.65995e-09
2.71826e-09
2.77763e-09
2.83807e-09
2.8996e-09
2.96222e-09
3.02595e-09
3.0908e-09
3.1568e-09
3.22394e-09
3.29224e-09
3.36171e-09
3.43238e-09
3.50425e-09
3.57733e-09
3.65163e-09
3.72718e-09
3.80398e-09
3.88204e-09
3.96138e-09
4.04201e-09
4.12393e-09
4.20718e-09
4.29174e-09
4.37765e-09
4.4649e-09
4.55351e-09
4.64349e-09
4.73485e-09
4.82761e-09
4.92178e-09
5.01735e-09
5.11436e-09
5.21279e-09
5.31268e-09
5.41402e-09
5.51682e-09
5.6211e-09
5.72686e-09
5.83412e-09
5.94287e-09
6.05314e-09
6.16492e-09
6.27822e-09
6.39306e-09
6.50944e-09
6.62736e-09
6.74684e-09
6.86787e-09
6.99047e-09
7.11464e-09
7.24038e-09
7.36771e-09
7.49661e-09
7.62711e-09
7.75919e-09
7.89287e-09
8.02815e-09
8.16502e-09
8.3035e-09
8.44358e-09
8.58526e-09
8.72854e-09
8.87343e-09
9.01992e-09
9.16801e-09
9.3177e-09
9.46899e-09
9.62188e-09
9.77636e-09
9.93243e-09
1.00901e-08
1.02493e-08
1.04101e-08
1.05725e-08
1.07364e-08
1.09019e-08
1.1069e-08
1.12376e-08
1.14077e-08
1.15793e-08
1.17525e-08
1.19271e-08
1.21033e-08
1.22809e-08
1.246e-08
1.26406e-08
1.28226e-08
1.3006e-08
1.31908e-08
1.3377e-08
1.35646e-08
1.37536e-08
1.39439e-08
1.41355e-08
1.43285e-08
1.45227e-08
1.47182e-08
1.49149e-08
1.51129e-08
1.53121e-08
1.55125e-08
1.5714e-08
1.59166e-08
1.61204e-08
1.63252e-08
1.65311e-08
1.6738e-08
1.69459e-08
1.71548e-08
1.73646e-08
1.75753e-08
1.77869e-08
1.79994e-08
1.82126e-08
1.84267e-08
1.86414e-08
1.88569e-08
1.90731e-08
1.92899e-08
1.95072e-08
1.97252e-08
1.99436e-08
2.01625e-08
2.03819e-08
2.06016e-08
2.08216e-08
2.10419e-08
2.12625e-08
2.14832e-08
2.17041e-08
2.1925e-08
2.21459e-08
2.23668e-08
2.25875e-08
2.2808e-08
2.30283e-08
2.32482e-08
2.34677e-08
2.36867e-08
2.3905e-08
2.41226e-08
2.43394e-08
2.45553e-08
2.47701e-08
2.49837e-08
2.51959e-08
2.54067e-08
2.56158e-08
2.58229e-08
2.60281e-08
2.62309e-08
2.64312e-08
2.66287e-08
2.6823e-08
2.70139e-08
2.72011e-08
2.73841e-08
2.75624e-08
2.77357e-08
2.79033e-08
2.80648e-08
2.82194e-08
2.83665e-08
2.85053e-08
2.8635e-08
2.87547e-08
2.88633e-08
2.89598e-08
2.90431e-08
2.9112e-08
2.91653e-08
2.92018e-08
2.92204e-08
)
;
    }
    Wall
    {
        type            calculated;
        value           nonuniform List<scalar> 
400
(
1.99618e-14
6.35789e-14
1.11564e-13
1.63715e-13
2.20066e-13
2.80811e-13
3.4614e-13
4.16254e-13
4.91374e-13
5.71744e-13
6.57621e-13
7.49275e-13
8.46988e-13
9.51048e-13
1.06175e-12
1.1794e-12
1.3043e-12
1.43677e-12
1.57711e-12
1.72567e-12
1.88275e-12
2.0487e-12
2.22385e-12
2.40855e-12
2.60315e-12
2.808e-12
3.02347e-12
3.24993e-12
3.48776e-12
3.73734e-12
3.99908e-12
4.27336e-12
4.56061e-12
4.86124e-12
5.17569e-12
5.50439e-12
5.8478e-12
6.20636e-12
6.58056e-12
6.97088e-12
7.37779e-12
7.80181e-12
8.24345e-12
8.70323e-12
9.1817e-12
9.6794e-12
1.01969e-11
1.07348e-11
1.12936e-11
1.1874e-11
1.24766e-11
1.3102e-11
1.37509e-11
1.4424e-11
1.51218e-11
1.58452e-11
1.65947e-11
1.73713e-11
1.81756e-11
1.90083e-11
1.98703e-11
2.07624e-11
2.16854e-11
2.26401e-11
2.36275e-11
2.46483e-11
2.57036e-11
2.67942e-11
2.79212e-11
2.90854e-11
3.0288e-11
3.15299e-11
3.28121e-11
3.41359e-11
3.55022e-11
3.69123e-11
3.83673e-11
3.98684e-11
4.14167e-11
4.30137e-11
4.46605e-11
4.63585e-11
4.81091e-11
4.99135e-11
5.17733e-11
5.36899e-11
5.56648e-11
5.76995e-11
5.97956e-11
6.19547e-11
6.41783e-11
6.64683e-11
6.88263e-11
7.12541e-11
7.37535e-11
7.63263e-11
7.89744e-11
8.16998e-11
8.45045e-11
8.73904e-11
9.03598e-11
9.34146e-11
9.6557e-11
9.97894e-11
1.03114e-10
1.06533e-10
1.10049e-10
1.13664e-10
1.17381e-10
1.21203e-10
1.25131e-10
1.29169e-10
1.33319e-10
1.37585e-10
1.41969e-10
1.46473e-10
1.51102e-10
1.55857e-10
1.60742e-10
1.65761e-10
1.70916e-10
1.76211e-10
1.81649e-10
1.87234e-10
1.92969e-10
1.98858e-10
2.04904e-10
2.11111e-10
2.17483e-10
2.24025e-10
2.30739e-10
2.3763e-10
2.44703e-10
2.51961e-10
2.59408e-10
2.6705e-10
2.7489e-10
2.82934e-10
2.91185e-10
2.9965e-10
3.08331e-10
3.17236e-10
3.26367e-10
3.35732e-10
3.45334e-10
3.55179e-10
3.65273e-10
3.75622e-10
3.8623e-10
3.97103e-10
4.08248e-10
4.1967e-10
4.31376e-10
4.4337e-10
4.55661e-10
4.68254e-10
4.81155e-10
4.94371e-10
5.07909e-10
5.21776e-10
5.35978e-10
5.50522e-10
5.65416e-10
5.80667e-10
5.96282e-10
6.12269e-10
6.28635e-10
6.45388e-10
6.62536e-10
6.80086e-10
6.98047e-10
7.16427e-10
7.35234e-10
7.54477e-10
7.74164e-10
7.94303e-10
8.14904e-10
8.35976e-10
8.57527e-10
8.79566e-10
9.02103e-10
9.25147e-10
9.48707e-10
9.72794e-10
9.97416e-10
1.02258e-09
1.04831e-09
1.0746e-09
1.10146e-09
1.12891e-09
1.15696e-09
1.18561e-09
1.21488e-09
1.24478e-09
1.27532e-09
1.30651e-09
1.33836e-09
1.37089e-09
1.40409e-09
1.43799e-09
1.4726e-09
1.50792e-09
1.54398e-09
1.58077e-09
1.61832e-09
1.65664e-09
1.69573e-09
1.73561e-09
1.77629e-09
1.81778e-09
1.8601e-09
1.90326e-09
1.94727e-09
1.99215e-09
2.0379e-09
2.08453e-09
2.13207e-09
2.18053e-09
2.22991e-09
2.28023e-09
2.33151e-09
2.38375e-09
2.43697e-09
2.49118e-09
2.54639e-09
2.60263e-09
2.6599e-09
2.71821e-09
2.77757e-09
2.83801e-09
2.89954e-09
2.96216e-09
3.02589e-09
3.09074e-09
3.15673e-09
3.22387e-09
3.29217e-09
3.36164e-09
3.43231e-09
3.50417e-09
3.57725e-09
3.65156e-09
3.7271e-09
3.8039e-09
3.88196e-09
3.9613e-09
4.04192e-09
4.12385e-09
4.20709e-09
4.29165e-09
4.37755e-09
4.4648e-09
4.55341e-09
4.64339e-09
4.73476e-09
4.82751e-09
4.92167e-09
5.01725e-09
5.11425e-09
5.21269e-09
5.31257e-09
5.41391e-09
5.51671e-09
5.62099e-09
5.72675e-09
5.834e-09
5.94275e-09
6.05301e-09
6.16479e-09
6.2781e-09
6.39293e-09
6.50931e-09
6.62723e-09
6.7467e-09
6.86773e-09
6.99033e-09
7.1145e-09
7.24024e-09
7.36756e-09
7.49646e-09
7.62695e-09
7.75904e-09
7.89271e-09
8.02799e-09
8.16486e-09
8.30333e-09
8.44341e-09
8.58508e-09
8.72837e-09
8.87325e-09
9.01974e-09
9.16783e-09
9.31752e-09
9.46881e-09
9.62169e-09
9.77617e-09
9.93223e-09
1.00899e-08
1.02491e-08
1.04099e-08
1.05723e-08
1.07362e-08
1.09017e-08
1.10688e-08
1.12374e-08
1.14075e-08
1.15791e-08
1.17523e-08
1.19269e-08
1.21031e-08
1.22807e-08
1.24598e-08
1.26403e-08
1.28223e-08
1.30057e-08
1.31905e-08
1.33768e-08
1.35644e-08
1.37533e-08
1.39436e-08
1.41353e-08
1.43282e-08
1.45224e-08
1.47179e-08
1.49147e-08
1.51127e-08
1.53118e-08
1.55122e-08
1.57137e-08
1.59163e-08
1.61201e-08
1.63249e-08
1.65308e-08
1.67377e-08
1.69456e-08
1.71545e-08
1.73643e-08
1.7575e-08
1.77866e-08
1.79991e-08
1.82123e-08
1.84264e-08
1.86411e-08
1.88566e-08
1.90728e-08
1.92896e-08
1.95069e-08
1.97249e-08
1.99433e-08
2.01622e-08
2.03815e-08
2.06012e-08
2.08213e-08
2.10416e-08
2.12622e-08
2.14829e-08
2.17037e-08
2.19246e-08
2.21456e-08
2.23664e-08
2.25871e-08
2.28077e-08
2.30279e-08
2.32479e-08
2.34673e-08
2.36863e-08
2.39046e-08
2.41223e-08
2.43391e-08
2.45549e-08
2.47697e-08
2.49833e-08
2.51956e-08
2.54063e-08
2.56154e-08
2.58226e-08
2.60277e-08
2.62305e-08
2.64308e-08
2.66283e-08
2.68226e-08
2.70136e-08
2.72007e-08
2.73837e-08
2.7562e-08
2.77353e-08
2.79029e-08
2.80644e-08
2.8219e-08
2.83662e-08
2.8505e-08
2.86347e-08
2.87543e-08
2.88629e-08
2.89595e-08
2.90428e-08
2.91117e-08
2.9165e-08
2.92016e-08
2.92202e-08
)
;
    }
}


// ************************************************************************* //
