/*--------------------------------*- C++ -*----------------------------------*\
  =========                 |
  \\      /  F ield         | OpenFOAM: The Open Source CFD Toolbox
   \\    /   O peration     | Website:  https://openfoam.org
    \\  /    A nd           | Version:  dev
     \\/     M anipulation  |
\*---------------------------------------------------------------------------*/
FoamFile
{
    format      ascii;
    class       volScalarField;
    location    "0.56";
    object      N1;
}
// * * * * * * * * * * * * * * * * * * * * * * * * * * * * * * * * * * * * * //

dimensions      [0 0 0 0 0 0 0];

internalField   nonuniform List<scalar> 
8000
(
1.51562e-13
4.82851e-13
8.47431e-13
1.24378e-12
1.67215e-12
2.13404e-12
2.63091e-12
3.16427e-12
3.73584e-12
4.34747e-12
5.00115e-12
5.69894e-12
6.44299e-12
7.23552e-12
8.07881e-12
8.97516e-12
9.92694e-12
1.09366e-11
1.20064e-11
1.31391e-11
1.4337e-11
1.56027e-11
1.69388e-11
1.8348e-11
1.9833e-11
2.13965e-11
2.30413e-11
2.47703e-11
2.65863e-11
2.84925e-11
3.04917e-11
3.25872e-11
3.4782e-11
3.70795e-11
3.94829e-11
4.19956e-11
4.46212e-11
4.7363e-11
5.02248e-11
5.32103e-11
5.63232e-11
5.95674e-11
6.29469e-11
6.64657e-11
7.01279e-11
7.39379e-11
7.79e-11
8.20185e-11
8.62981e-11
9.07434e-11
9.53592e-11
1.0015e-10
1.05122e-10
1.10279e-10
1.15627e-10
1.21171e-10
1.26916e-10
1.32869e-10
1.39035e-10
1.45419e-10
1.52029e-10
1.5887e-10
1.65949e-10
1.73271e-10
1.80845e-10
1.88676e-10
1.96772e-10
2.0514e-10
2.13787e-10
2.22721e-10
2.3195e-10
2.41481e-10
2.51323e-10
2.61484e-10
2.71972e-10
2.82797e-10
2.93967e-10
3.05492e-10
3.17381e-10
3.29643e-10
3.42289e-10
3.55329e-10
3.68773e-10
3.82632e-10
3.96916e-10
4.11637e-10
4.26807e-10
4.42437e-10
4.58539e-10
4.75125e-10
4.92209e-10
5.09803e-10
5.2792e-10
5.46574e-10
5.65778e-10
5.85548e-10
6.05897e-10
6.2684e-10
6.48394e-10
6.70572e-10
6.93392e-10
7.16869e-10
7.41021e-10
7.65865e-10
7.91417e-10
8.17696e-10
8.44721e-10
8.7251e-10
9.01082e-10
9.30456e-10
9.60654e-10
9.91695e-10
1.0236e-09
1.05639e-09
1.09009e-09
1.12472e-09
1.1603e-09
1.19686e-09
1.23442e-09
1.27301e-09
1.31264e-09
1.35335e-09
1.39516e-09
1.4381e-09
1.4822e-09
1.52747e-09
1.57396e-09
1.62169e-09
1.67069e-09
1.72099e-09
1.77261e-09
1.8256e-09
1.87998e-09
1.93579e-09
1.99306e-09
2.05182e-09
2.11211e-09
2.17397e-09
2.23742e-09
2.30251e-09
2.36927e-09
2.43774e-09
2.50796e-09
2.57998e-09
2.65382e-09
2.72953e-09
2.80715e-09
2.88673e-09
2.96831e-09
3.05193e-09
3.13764e-09
3.22548e-09
3.3155e-09
3.40774e-09
3.50226e-09
3.59911e-09
3.69832e-09
3.79996e-09
3.90408e-09
4.01072e-09
4.11994e-09
4.2318e-09
4.34634e-09
4.46363e-09
4.58372e-09
4.70667e-09
4.83254e-09
4.96138e-09
5.09326e-09
5.22824e-09
5.36637e-09
5.50773e-09
5.65237e-09
5.80036e-09
5.95177e-09
6.10666e-09
6.2651e-09
6.42716e-09
6.59291e-09
6.76241e-09
6.93574e-09
7.11297e-09
7.29417e-09
7.47942e-09
7.66879e-09
7.86235e-09
8.06019e-09
8.26238e-09
8.469e-09
8.68012e-09
8.89583e-09
9.11621e-09
9.34134e-09
9.5713e-09
9.80618e-09
1.00461e-08
1.0291e-08
1.05411e-08
1.07965e-08
1.10573e-08
1.13234e-08
1.15951e-08
1.18724e-08
1.21554e-08
1.24442e-08
1.27389e-08
1.30395e-08
1.33462e-08
1.36591e-08
1.39783e-08
1.43038e-08
1.46357e-08
1.49742e-08
1.53193e-08
1.56712e-08
1.60299e-08
1.63955e-08
1.67682e-08
1.7148e-08
1.7535e-08
1.79294e-08
1.83312e-08
1.87405e-08
1.91574e-08
1.95821e-08
2.00146e-08
2.0455e-08
2.09035e-08
2.13601e-08
2.1825e-08
2.22981e-08
2.27798e-08
2.32699e-08
2.37687e-08
2.42762e-08
2.47926e-08
2.53179e-08
2.58523e-08
2.63958e-08
2.69485e-08
2.75105e-08
2.8082e-08
2.86631e-08
2.92537e-08
2.98541e-08
3.04643e-08
3.10844e-08
3.17145e-08
3.23547e-08
3.30051e-08
3.36658e-08
3.43368e-08
3.50183e-08
3.57104e-08
3.6413e-08
3.71264e-08
3.78506e-08
3.85857e-08
3.93318e-08
4.00889e-08
4.08571e-08
4.16365e-08
4.24271e-08
4.32291e-08
4.40425e-08
4.48674e-08
4.57039e-08
4.65519e-08
4.74116e-08
4.8283e-08
4.91662e-08
5.00613e-08
5.09682e-08
5.18871e-08
5.2818e-08
5.37609e-08
5.47159e-08
5.56829e-08
5.66622e-08
5.76536e-08
5.86572e-08
5.96731e-08
6.07012e-08
6.17416e-08
6.27943e-08
6.38593e-08
6.49366e-08
6.60263e-08
6.71283e-08
6.82426e-08
6.93693e-08
7.05082e-08
7.16595e-08
7.28231e-08
7.39989e-08
7.5187e-08
7.63873e-08
7.75998e-08
7.88245e-08
8.00612e-08
8.13101e-08
8.25709e-08
8.38438e-08
8.51285e-08
8.64251e-08
8.77335e-08
8.90536e-08
9.03853e-08
9.17285e-08
9.30833e-08
9.44494e-08
9.58268e-08
9.72154e-08
9.8615e-08
1.00026e-07
1.01447e-07
1.02879e-07
1.04322e-07
1.05775e-07
1.07239e-07
1.08713e-07
1.10197e-07
1.11691e-07
1.13194e-07
1.14707e-07
1.1623e-07
1.17762e-07
1.19303e-07
1.20853e-07
1.22411e-07
1.23978e-07
1.25554e-07
1.27137e-07
1.28728e-07
1.30327e-07
1.31934e-07
1.33547e-07
1.35168e-07
1.36796e-07
1.38429e-07
1.4007e-07
1.41716e-07
1.43368e-07
1.45025e-07
1.46687e-07
1.48355e-07
1.50026e-07
1.51703e-07
1.53383e-07
1.55066e-07
1.56753e-07
1.58443e-07
1.60135e-07
1.6183e-07
1.63526e-07
1.65224e-07
1.66922e-07
1.68621e-07
1.7032e-07
1.72019e-07
1.73716e-07
1.75413e-07
1.77107e-07
1.78798e-07
1.80486e-07
1.8217e-07
1.83849e-07
1.85523e-07
1.8719e-07
1.88851e-07
1.90503e-07
1.92145e-07
1.93778e-07
1.95398e-07
1.97006e-07
1.986e-07
2.00177e-07
2.01737e-07
2.03278e-07
2.04796e-07
2.06291e-07
2.0776e-07
2.09199e-07
2.10606e-07
2.11978e-07
2.1331e-07
2.146e-07
2.15841e-07
2.17031e-07
2.18162e-07
2.1923e-07
2.20227e-07
2.21147e-07
2.21983e-07
2.22725e-07
2.23366e-07
2.23895e-07
2.24305e-07
2.24586e-07
2.24729e-07
1.48473e-13
4.75969e-13
8.37473e-13
1.23247e-12
1.66091e-12
2.12379e-12
2.6224e-12
3.15818e-12
3.73284e-12
4.34822e-12
5.00634e-12
5.7093e-12
6.45929e-12
7.25858e-12
8.10949e-12
9.0144e-12
9.97573e-12
1.09959e-11
1.20775e-11
1.3223e-11
1.44351e-11
1.57162e-11
1.70692e-11
1.84968e-11
2.00017e-11
2.15867e-11
2.32548e-11
2.50089e-11
2.68521e-11
2.87873e-11
3.08177e-11
3.29466e-11
3.51772e-11
3.75128e-11
3.9957e-11
4.25131e-11
4.51848e-11
4.79758e-11
5.08897e-11
5.39304e-11
5.71018e-11
6.04079e-11
6.38529e-11
6.74409e-11
7.11761e-11
7.50631e-11
7.91062e-11
8.33101e-11
8.76794e-11
9.22191e-11
9.6934e-11
1.01829e-10
1.0691e-10
1.12181e-10
1.17648e-10
1.23318e-10
1.29194e-10
1.35284e-10
1.41593e-10
1.48127e-10
1.54893e-10
1.61897e-10
1.69146e-10
1.76645e-10
1.84403e-10
1.92427e-10
2.00722e-10
2.09298e-10
2.18161e-10
2.2732e-10
2.36782e-10
2.46556e-10
2.5665e-10
2.67072e-10
2.77832e-10
2.88938e-10
3.004e-10
3.12227e-10
3.24429e-10
3.37016e-10
3.49999e-10
3.63387e-10
3.77191e-10
3.91422e-10
4.06092e-10
4.21213e-10
4.36795e-10
4.52851e-10
4.69394e-10
4.86436e-10
5.0399e-10
5.2207e-10
5.40689e-10
5.59861e-10
5.796e-10
5.99922e-10
6.20841e-10
6.42372e-10
6.64531e-10
6.87335e-10
7.10799e-10
7.34941e-10
7.59778e-10
7.85327e-10
8.11607e-10
8.38636e-10
8.66433e-10
8.95017e-10
9.24408e-10
9.54626e-10
9.85693e-10
1.01763e-09
1.05045e-09
1.08419e-09
1.11887e-09
1.1545e-09
1.19111e-09
1.22873e-09
1.26739e-09
1.30709e-09
1.34788e-09
1.38978e-09
1.43281e-09
1.47701e-09
1.52239e-09
1.56899e-09
1.61684e-09
1.66597e-09
1.71641e-09
1.76819e-09
1.82133e-09
1.87588e-09
1.93187e-09
1.98932e-09
2.04828e-09
2.10878e-09
2.17085e-09
2.23453e-09
2.29986e-09
2.36688e-09
2.43561e-09
2.50612e-09
2.57842e-09
2.65257e-09
2.72861e-09
2.80657e-09
2.8865e-09
2.96845e-09
3.05246e-09
3.13857e-09
3.22683e-09
3.31729e-09
3.40999e-09
3.50499e-09
3.60233e-09
3.70206e-09
3.80425e-09
3.90892e-09
4.01615e-09
4.12598e-09
4.23848e-09
4.35368e-09
4.47166e-09
4.59246e-09
4.71615e-09
4.84279e-09
4.97243e-09
5.10514e-09
5.24098e-09
5.38001e-09
5.5223e-09
5.6679e-09
5.8169e-09
5.96934e-09
6.1253e-09
6.28486e-09
6.44807e-09
6.61501e-09
6.78575e-09
6.96036e-09
7.13891e-09
7.32149e-09
7.50816e-09
7.699e-09
7.89408e-09
8.09349e-09
8.29731e-09
8.50561e-09
8.71847e-09
8.93598e-09
9.15821e-09
9.38526e-09
9.6172e-09
9.85413e-09
1.00961e-08
1.03433e-08
1.05956e-08
1.08534e-08
1.11165e-08
1.13851e-08
1.16594e-08
1.19393e-08
1.2225e-08
1.25166e-08
1.28142e-08
1.31178e-08
1.34276e-08
1.37436e-08
1.4066e-08
1.43949e-08
1.47303e-08
1.50723e-08
1.54211e-08
1.57767e-08
1.61393e-08
1.6509e-08
1.68857e-08
1.72698e-08
1.76611e-08
1.806e-08
1.84664e-08
1.88804e-08
1.93022e-08
1.97319e-08
2.01696e-08
2.06153e-08
2.10692e-08
2.15314e-08
2.2002e-08
2.2481e-08
2.29687e-08
2.3465e-08
2.39702e-08
2.44843e-08
2.50074e-08
2.55396e-08
2.6081e-08
2.66317e-08
2.71919e-08
2.77616e-08
2.83409e-08
2.89299e-08
2.95288e-08
3.01376e-08
3.07564e-08
3.13854e-08
3.20245e-08
3.2674e-08
3.33339e-08
3.40044e-08
3.46854e-08
3.53771e-08
3.60796e-08
3.6793e-08
3.75173e-08
3.82527e-08
3.89993e-08
3.9757e-08
4.05261e-08
4.13066e-08
4.20985e-08
4.2902e-08
4.37171e-08
4.45439e-08
4.53824e-08
4.62329e-08
4.70952e-08
4.79695e-08
4.88558e-08
4.97542e-08
5.06648e-08
5.15876e-08
5.25227e-08
5.34701e-08
5.44298e-08
5.5402e-08
5.63866e-08
5.73837e-08
5.83934e-08
5.94156e-08
6.04505e-08
6.14979e-08
6.2558e-08
6.36308e-08
6.47163e-08
6.58145e-08
6.69254e-08
6.8049e-08
6.91853e-08
7.03344e-08
7.14962e-08
7.26707e-08
7.3858e-08
7.50579e-08
7.62705e-08
7.74957e-08
7.87335e-08
7.9984e-08
8.12469e-08
8.25224e-08
8.38104e-08
8.51107e-08
8.64235e-08
8.77485e-08
8.90857e-08
9.04351e-08
9.17967e-08
9.31702e-08
9.45556e-08
9.5953e-08
9.7362e-08
9.87827e-08
1.00215e-07
1.01659e-07
1.03114e-07
1.0458e-07
1.06057e-07
1.07546e-07
1.09045e-07
1.10555e-07
1.12075e-07
1.13606e-07
1.15147e-07
1.16698e-07
1.18259e-07
1.1983e-07
1.2141e-07
1.23e-07
1.24598e-07
1.26206e-07
1.27823e-07
1.29448e-07
1.31082e-07
1.32724e-07
1.34374e-07
1.36031e-07
1.37696e-07
1.39368e-07
1.41047e-07
1.42733e-07
1.44426e-07
1.46124e-07
1.47829e-07
1.49539e-07
1.51254e-07
1.52975e-07
1.547e-07
1.5643e-07
1.58163e-07
1.59901e-07
1.61642e-07
1.63386e-07
1.65132e-07
1.66881e-07
1.68632e-07
1.70384e-07
1.72137e-07
1.73891e-07
1.75644e-07
1.77398e-07
1.7915e-07
1.80901e-07
1.8265e-07
1.84396e-07
1.86138e-07
1.87877e-07
1.8961e-07
1.91339e-07
1.9306e-07
1.94774e-07
1.9648e-07
1.98177e-07
1.99863e-07
2.01537e-07
2.03197e-07
2.04844e-07
2.06473e-07
2.08085e-07
2.09677e-07
2.11246e-07
2.12791e-07
2.1431e-07
2.15798e-07
2.17253e-07
2.18672e-07
2.20051e-07
2.21386e-07
2.22672e-07
2.23904e-07
2.25077e-07
2.26185e-07
2.2722e-07
2.28176e-07
2.29046e-07
2.29819e-07
2.30488e-07
2.31043e-07
2.31473e-07
2.31769e-07
2.31921e-07
1.45693e-13
4.67412e-13
8.22213e-13
1.21113e-12
1.63474e-12
2.09387e-12
2.58961e-12
3.12334e-12
3.69666e-12
4.3114e-12
4.96952e-12
5.67313e-12
6.42444e-12
7.22573e-12
8.07935e-12
8.98772e-12
9.95328e-12
1.09785e-11
1.2066e-11
1.32184e-11
1.44382e-11
1.57282e-11
1.70911e-11
1.85297e-11
2.00469e-11
2.16455e-11
2.33284e-11
2.50989e-11
2.69598e-11
2.89144e-11
3.0966e-11
3.31177e-11
3.5373e-11
3.77353e-11
4.02081e-11
4.2795e-11
4.54997e-11
4.8326e-11
5.12777e-11
5.43587e-11
5.75731e-11
6.0925e-11
6.44186e-11
6.80582e-11
7.18482e-11
7.57931e-11
7.98975e-11
8.41662e-11
8.8604e-11
9.32159e-11
9.80068e-11
1.02982e-10
1.08147e-10
1.13507e-10
1.19067e-10
1.24834e-10
1.30813e-10
1.37011e-10
1.43432e-10
1.50084e-10
1.56973e-10
1.64106e-10
1.71489e-10
1.79129e-10
1.87033e-10
1.95209e-10
2.03665e-10
2.12406e-10
2.21443e-10
2.30782e-10
2.40431e-10
2.504e-10
2.60696e-10
2.71329e-10
2.82307e-10
2.93641e-10
3.05339e-10
3.1741e-10
3.29866e-10
3.42717e-10
3.55972e-10
3.69643e-10
3.8374e-10
3.98275e-10
4.13259e-10
4.28705e-10
4.44624e-10
4.61028e-10
4.77931e-10
4.95346e-10
5.13285e-10
5.31763e-10
5.50793e-10
5.70389e-10
5.90568e-10
6.11342e-10
6.32729e-10
6.54743e-10
6.77401e-10
7.00719e-10
7.24713e-10
7.49403e-10
7.74804e-10
8.00935e-10
8.27815e-10
8.55462e-10
8.83897e-10
9.13137e-10
9.43205e-10
9.74121e-10
1.00591e-09
1.03858e-09
1.07217e-09
1.10669e-09
1.14217e-09
1.17864e-09
1.2161e-09
1.25461e-09
1.29416e-09
1.3348e-09
1.37655e-09
1.41943e-09
1.46348e-09
1.50871e-09
1.55517e-09
1.60288e-09
1.65186e-09
1.70215e-09
1.75379e-09
1.80679e-09
1.8612e-09
1.91705e-09
1.97437e-09
2.0332e-09
2.09356e-09
2.15551e-09
2.21906e-09
2.28427e-09
2.35117e-09
2.41979e-09
2.49018e-09
2.56238e-09
2.63642e-09
2.71236e-09
2.79023e-09
2.87007e-09
2.95193e-09
3.03586e-09
3.1219e-09
3.21009e-09
3.30049e-09
3.39314e-09
3.48809e-09
3.58539e-09
3.6851e-09
3.78726e-09
3.89192e-09
3.99915e-09
4.10899e-09
4.2215e-09
4.33673e-09
4.45475e-09
4.57561e-09
4.69936e-09
4.82608e-09
4.95581e-09
5.08863e-09
5.22459e-09
5.36375e-09
5.50619e-09
5.65197e-09
5.80115e-09
5.9538e-09
6.10999e-09
6.26979e-09
6.43327e-09
6.6005e-09
6.77156e-09
6.9465e-09
7.12542e-09
7.30838e-09
7.49547e-09
7.68675e-09
7.88231e-09
8.08222e-09
8.28657e-09
8.49543e-09
8.70889e-09
8.92703e-09
9.14993e-09
9.37768e-09
9.61037e-09
9.84807e-09
1.00909e-08
1.03389e-08
1.05922e-08
1.08509e-08
1.1115e-08
1.13847e-08
1.166e-08
1.19411e-08
1.2228e-08
1.25209e-08
1.28198e-08
1.31248e-08
1.3436e-08
1.37535e-08
1.40775e-08
1.4408e-08
1.47451e-08
1.50889e-08
1.54395e-08
1.57971e-08
1.61617e-08
1.65334e-08
1.69123e-08
1.72986e-08
1.76923e-08
1.80935e-08
1.85024e-08
1.89191e-08
1.93436e-08
1.97761e-08
2.02166e-08
2.06653e-08
2.11223e-08
2.15877e-08
2.20616e-08
2.25441e-08
2.30354e-08
2.35354e-08
2.40444e-08
2.45624e-08
2.50895e-08
2.56259e-08
2.61717e-08
2.67269e-08
2.72917e-08
2.78661e-08
2.84503e-08
2.90444e-08
2.96485e-08
3.02627e-08
3.08871e-08
3.15217e-08
3.21668e-08
3.28224e-08
3.34885e-08
3.41654e-08
3.4853e-08
3.55515e-08
3.6261e-08
3.69816e-08
3.77133e-08
3.84563e-08
3.92107e-08
3.99765e-08
4.07538e-08
4.15427e-08
4.23433e-08
4.31557e-08
4.398e-08
4.48162e-08
4.56644e-08
4.65247e-08
4.73972e-08
4.82819e-08
4.91789e-08
5.00882e-08
5.101e-08
5.19443e-08
5.28911e-08
5.38505e-08
5.48226e-08
5.58074e-08
5.6805e-08
5.78153e-08
5.88385e-08
5.98746e-08
6.09235e-08
6.19855e-08
6.30604e-08
6.41483e-08
6.52492e-08
6.63632e-08
6.74903e-08
6.86304e-08
6.97836e-08
7.09498e-08
7.21292e-08
7.33216e-08
7.45271e-08
7.57457e-08
7.69773e-08
7.8222e-08
7.94796e-08
8.07502e-08
8.20338e-08
8.33303e-08
8.46396e-08
8.59617e-08
8.72967e-08
8.86443e-08
9.00046e-08
9.13774e-08
9.27628e-08
9.41606e-08
9.55708e-08
9.69933e-08
9.8428e-08
9.98747e-08
1.01333e-07
1.02804e-07
1.04286e-07
1.05781e-07
1.07286e-07
1.08803e-07
1.10332e-07
1.11871e-07
1.13422e-07
1.14983e-07
1.16555e-07
1.18138e-07
1.19731e-07
1.21334e-07
1.22947e-07
1.2457e-07
1.26203e-07
1.27845e-07
1.29497e-07
1.31157e-07
1.32827e-07
1.34505e-07
1.36191e-07
1.37886e-07
1.39589e-07
1.41299e-07
1.43017e-07
1.44742e-07
1.46475e-07
1.48213e-07
1.49958e-07
1.5171e-07
1.53467e-07
1.5523e-07
1.56997e-07
1.5877e-07
1.60548e-07
1.62329e-07
1.64115e-07
1.65904e-07
1.67696e-07
1.69491e-07
1.71288e-07
1.73088e-07
1.74889e-07
1.76691e-07
1.78493e-07
1.80296e-07
1.82099e-07
1.839e-07
1.857e-07
1.87498e-07
1.89293e-07
1.91085e-07
1.92873e-07
1.94656e-07
1.96433e-07
1.98204e-07
1.99967e-07
2.01722e-07
2.03468e-07
2.05202e-07
2.06925e-07
2.08634e-07
2.10328e-07
2.12006e-07
2.13666e-07
2.15305e-07
2.16922e-07
2.18514e-07
2.20078e-07
2.21613e-07
2.23114e-07
2.24578e-07
2.26001e-07
2.2738e-07
2.28709e-07
2.29984e-07
2.31198e-07
2.32346e-07
2.3342e-07
2.34414e-07
2.35319e-07
2.36127e-07
2.36827e-07
2.37409e-07
2.37863e-07
2.38178e-07
2.38341e-07
1.42929e-13
4.58447e-13
8.05872e-13
1.187e-12
1.60313e-12
2.05537e-12
2.54491e-12
3.07316e-12
3.6417e-12
4.25231e-12
4.90697e-12
5.60774e-12
6.35682e-12
7.1565e-12
8.00913e-12
8.91711e-12
9.88293e-12
1.09091e-11
1.19982e-11
1.31528e-11
1.43757e-11
1.56695e-11
1.70371e-11
1.84812e-11
2.00047e-11
2.16107e-11
2.33022e-11
2.50821e-11
2.69537e-11
2.89203e-11
3.0985e-11
3.31513e-11
3.54226e-11
3.78024e-11
4.02943e-11
4.2902e-11
4.56292e-11
4.84799e-11
5.14579e-11
5.45673e-11
5.78121e-11
6.11966e-11
6.47251e-11
6.8402e-11
7.22319e-11
7.62192e-11
8.03688e-11
8.46854e-11
8.91741e-11
9.38398e-11
9.86878e-11
1.03723e-10
1.08952e-10
1.14379e-10
1.2001e-10
1.25852e-10
1.31909e-10
1.38189e-10
1.44697e-10
1.5144e-10
1.58424e-10
1.65656e-10
1.73144e-10
1.80893e-10
1.88912e-10
1.97208e-10
2.05788e-10
2.1466e-10
2.23833e-10
2.33313e-10
2.43111e-10
2.53233e-10
2.6369e-10
2.7449e-10
2.85642e-10
2.97156e-10
3.09041e-10
3.21308e-10
3.33966e-10
3.47027e-10
3.605e-10
3.74397e-10
3.88728e-10
4.03507e-10
4.18743e-10
4.3445e-10
4.50639e-10
4.67324e-10
4.84516e-10
5.02231e-10
5.2048e-10
5.39279e-10
5.58641e-10
5.78581e-10
5.99114e-10
6.20255e-10
6.4202e-10
6.64425e-10
6.87487e-10
7.11221e-10
7.35647e-10
7.6078e-10
7.86639e-10
8.13243e-10
8.40611e-10
8.68761e-10
8.97714e-10
9.27489e-10
9.58108e-10
9.89591e-10
1.02196e-09
1.05524e-09
1.08945e-09
1.12461e-09
1.16075e-09
1.19789e-09
1.23606e-09
1.27528e-09
1.31558e-09
1.35698e-09
1.39951e-09
1.4432e-09
1.48807e-09
1.53417e-09
1.5815e-09
1.63011e-09
1.68002e-09
1.73127e-09
1.78388e-09
1.8379e-09
1.89335e-09
1.95026e-09
2.00868e-09
2.06863e-09
2.13015e-09
2.19328e-09
2.25806e-09
2.32452e-09
2.39271e-09
2.46266e-09
2.5344e-09
2.608e-09
2.68348e-09
2.76088e-09
2.84026e-09
2.92165e-09
3.0051e-09
3.09066e-09
3.17838e-09
3.26829e-09
3.36045e-09
3.45491e-09
3.55172e-09
3.65093e-09
3.75258e-09
3.85675e-09
3.96347e-09
4.0728e-09
4.18479e-09
4.29952e-09
4.41702e-09
4.53736e-09
4.6606e-09
4.7868e-09
4.91602e-09
5.04832e-09
5.18377e-09
5.32242e-09
5.46435e-09
5.60962e-09
5.75829e-09
5.91043e-09
6.06612e-09
6.22543e-09
6.38841e-09
6.55515e-09
6.72572e-09
6.90019e-09
7.07863e-09
7.26113e-09
7.44776e-09
7.63859e-09
7.83371e-09
8.0332e-09
8.23713e-09
8.44558e-09
8.65865e-09
8.87641e-09
9.09895e-09
9.32635e-09
9.5587e-09
9.79609e-09
1.00386e-08
1.02863e-08
1.05394e-08
1.07978e-08
1.10617e-08
1.13312e-08
1.16064e-08
1.18873e-08
1.21741e-08
1.24669e-08
1.27657e-08
1.30707e-08
1.33819e-08
1.36995e-08
1.40236e-08
1.43542e-08
1.46914e-08
1.50354e-08
1.53863e-08
1.57441e-08
1.6109e-08
1.64811e-08
1.68605e-08
1.72472e-08
1.76414e-08
1.80433e-08
1.84528e-08
1.88702e-08
1.92954e-08
1.97287e-08
2.01702e-08
2.06199e-08
2.10779e-08
2.15444e-08
2.20195e-08
2.25033e-08
2.29958e-08
2.34973e-08
2.40078e-08
2.45274e-08
2.50562e-08
2.55944e-08
2.6142e-08
2.66992e-08
2.7266e-08
2.78427e-08
2.84292e-08
2.90257e-08
2.96323e-08
3.02491e-08
3.08763e-08
3.15138e-08
3.21619e-08
3.28206e-08
3.349e-08
3.41703e-08
3.48615e-08
3.55637e-08
3.6277e-08
3.70016e-08
3.77375e-08
3.84849e-08
3.92437e-08
4.00141e-08
4.07963e-08
4.15902e-08
4.2396e-08
4.32138e-08
4.40436e-08
4.48856e-08
4.57397e-08
4.66062e-08
4.7485e-08
4.83762e-08
4.928e-08
5.01963e-08
5.11253e-08
5.2067e-08
5.30215e-08
5.39888e-08
5.49691e-08
5.59622e-08
5.69684e-08
5.79877e-08
5.902e-08
6.00655e-08
6.11241e-08
6.2196e-08
6.32811e-08
6.43795e-08
6.54912e-08
6.66163e-08
6.77547e-08
6.89065e-08
7.00717e-08
7.12502e-08
7.24422e-08
7.36475e-08
7.48663e-08
7.60984e-08
7.73439e-08
7.86028e-08
7.9875e-08
8.11605e-08
8.24593e-08
8.37714e-08
8.50967e-08
8.64352e-08
8.77868e-08
8.91515e-08
9.05292e-08
9.19199e-08
9.33235e-08
9.47399e-08
9.61691e-08
9.7611e-08
9.90654e-08
1.00532e-07
1.02012e-07
1.03503e-07
1.05007e-07
1.06523e-07
1.08051e-07
1.09591e-07
1.11142e-07
1.12705e-07
1.1428e-07
1.15865e-07
1.17462e-07
1.1907e-07
1.20689e-07
1.22318e-07
1.23958e-07
1.25608e-07
1.27269e-07
1.28939e-07
1.30619e-07
1.32308e-07
1.34007e-07
1.35715e-07
1.37432e-07
1.39158e-07
1.40892e-07
1.42634e-07
1.44384e-07
1.46142e-07
1.47907e-07
1.4968e-07
1.51459e-07
1.53245e-07
1.55037e-07
1.56835e-07
1.58639e-07
1.60449e-07
1.62263e-07
1.64082e-07
1.65906e-07
1.67734e-07
1.69565e-07
1.714e-07
1.73238e-07
1.75078e-07
1.7692e-07
1.78764e-07
1.80609e-07
1.82455e-07
1.84301e-07
1.86147e-07
1.87992e-07
1.89835e-07
1.91677e-07
1.93515e-07
1.95351e-07
1.97182e-07
1.99009e-07
2.0083e-07
2.02644e-07
2.04451e-07
2.0625e-07
2.08039e-07
2.09817e-07
2.11583e-07
2.13336e-07
2.15074e-07
2.16795e-07
2.18498e-07
2.2018e-07
2.21839e-07
2.23474e-07
2.25081e-07
2.26658e-07
2.28201e-07
2.29707e-07
2.31172e-07
2.32592e-07
2.33962e-07
2.35277e-07
2.36531e-07
2.37718e-07
2.3883e-07
2.39862e-07
2.40803e-07
2.41644e-07
2.42376e-07
2.42988e-07
2.43467e-07
2.43801e-07
2.43975e-07
1.40319e-13
4.4994e-13
7.90391e-13
1.16366e-12
1.57151e-12
2.01547e-12
2.49702e-12
3.01773e-12
3.57927e-12
4.18348e-12
4.83231e-12
5.52786e-12
6.2723e-12
7.06789e-12
7.91698e-12
8.82197e-12
9.78532e-12
1.08096e-11
1.18973e-11
1.3051e-11
1.42736e-11
1.55677e-11
1.69362e-11
1.83819e-11
1.99077e-11
2.15167e-11
2.32119e-11
2.49964e-11
2.68735e-11
2.88464e-11
3.09185e-11
3.30932e-11
3.53739e-11
3.77644e-11
4.02682e-11
4.2889e-11
4.56308e-11
4.84974e-11
5.14928e-11
5.46212e-11
5.78867e-11
6.12935e-11
6.48462e-11
6.85492e-11
7.2407e-11
7.64244e-11
8.06062e-11
8.49573e-11
8.94827e-11
9.41875e-11
9.90771e-11
1.04157e-10
1.09432e-10
1.14909e-10
1.20593e-10
1.2649e-10
1.32606e-10
1.38948e-10
1.45521e-10
1.52332e-10
1.59389e-10
1.66697e-10
1.74264e-10
1.82097e-10
1.90204e-10
1.98591e-10
2.07267e-10
2.1624e-10
2.25517e-10
2.35107e-10
2.45019e-10
2.55261e-10
2.65842e-10
2.76771e-10
2.88059e-10
2.99713e-10
3.11745e-10
3.24164e-10
3.36981e-10
3.50206e-10
3.63851e-10
3.77925e-10
3.92441e-10
4.07411e-10
4.22846e-10
4.38759e-10
4.55161e-10
4.72067e-10
4.89489e-10
5.07441e-10
5.25936e-10
5.44989e-10
5.64614e-10
5.84827e-10
6.05641e-10
6.27073e-10
6.49139e-10
6.71856e-10
6.95239e-10
7.19305e-10
7.44073e-10
7.69561e-10
7.95786e-10
8.22767e-10
8.50524e-10
8.79076e-10
9.08444e-10
9.38647e-10
9.69706e-10
1.00164e-09
1.03448e-09
1.06824e-09
1.10295e-09
1.13863e-09
1.17529e-09
1.21298e-09
1.25171e-09
1.29151e-09
1.3324e-09
1.37441e-09
1.41757e-09
1.46191e-09
1.50746e-09
1.55423e-09
1.60227e-09
1.65161e-09
1.70227e-09
1.75429e-09
1.80769e-09
1.86252e-09
1.91881e-09
1.97658e-09
2.03588e-09
2.09674e-09
2.1592e-09
2.22329e-09
2.28906e-09
2.35653e-09
2.42576e-09
2.49678e-09
2.56963e-09
2.64435e-09
2.72099e-09
2.79958e-09
2.88018e-09
2.96283e-09
3.04757e-09
3.13445e-09
3.22352e-09
3.31483e-09
3.40842e-09
3.50435e-09
3.60266e-09
3.70342e-09
3.80666e-09
3.91245e-09
4.02084e-09
4.13188e-09
4.24563e-09
4.36215e-09
4.4815e-09
4.60374e-09
4.72892e-09
4.8571e-09
4.98836e-09
5.12275e-09
5.26034e-09
5.40119e-09
5.54536e-09
5.69293e-09
5.84396e-09
5.99853e-09
6.15669e-09
6.31853e-09
6.48412e-09
6.65352e-09
6.82681e-09
7.00407e-09
7.18538e-09
7.3708e-09
7.56042e-09
7.75432e-09
7.95258e-09
8.15527e-09
8.36249e-09
8.57431e-09
8.79081e-09
9.01209e-09
9.23823e-09
9.46932e-09
9.70544e-09
9.94668e-09
1.01931e-08
1.04449e-08
1.0702e-08
1.09647e-08
1.12329e-08
1.15068e-08
1.17865e-08
1.2072e-08
1.23635e-08
1.26611e-08
1.29648e-08
1.32748e-08
1.35912e-08
1.3914e-08
1.42434e-08
1.45794e-08
1.49223e-08
1.5272e-08
1.56286e-08
1.59924e-08
1.63634e-08
1.67416e-08
1.71273e-08
1.75205e-08
1.79213e-08
1.83298e-08
1.87462e-08
1.91705e-08
1.96029e-08
2.00435e-08
2.04923e-08
2.09496e-08
2.14153e-08
2.18897e-08
2.23728e-08
2.28647e-08
2.33656e-08
2.38755e-08
2.43946e-08
2.4923e-08
2.54608e-08
2.60082e-08
2.65651e-08
2.71318e-08
2.77083e-08
2.82948e-08
2.88913e-08
2.9498e-08
3.0115e-08
3.07424e-08
3.13803e-08
3.20288e-08
3.2688e-08
3.33581e-08
3.4039e-08
3.4731e-08
3.54341e-08
3.61485e-08
3.68742e-08
3.76114e-08
3.836e-08
3.91203e-08
3.98924e-08
4.06763e-08
4.1472e-08
4.22798e-08
4.30997e-08
4.39318e-08
4.47762e-08
4.56329e-08
4.6502e-08
4.73837e-08
4.8278e-08
4.9185e-08
5.01047e-08
5.10372e-08
5.19826e-08
5.2941e-08
5.39124e-08
5.48969e-08
5.58946e-08
5.69054e-08
5.79295e-08
5.8967e-08
6.00177e-08
6.10819e-08
6.21595e-08
6.32506e-08
6.43552e-08
6.54734e-08
6.66051e-08
6.77504e-08
6.89094e-08
7.0082e-08
7.12682e-08
7.24681e-08
7.36817e-08
7.49089e-08
7.61499e-08
7.74044e-08
7.86726e-08
7.99545e-08
8.12499e-08
8.2559e-08
8.38816e-08
8.52178e-08
8.65674e-08
8.79305e-08
8.93071e-08
9.06969e-08
9.21001e-08
9.35165e-08
9.49461e-08
9.63888e-08
9.78445e-08
9.93132e-08
1.00795e-07
1.02289e-07
1.03796e-07
1.05315e-07
1.06847e-07
1.08392e-07
1.09948e-07
1.11517e-07
1.13098e-07
1.1469e-07
1.16294e-07
1.1791e-07
1.19537e-07
1.21176e-07
1.22825e-07
1.24486e-07
1.26157e-07
1.27838e-07
1.2953e-07
1.31233e-07
1.32945e-07
1.34667e-07
1.36398e-07
1.38139e-07
1.39889e-07
1.41648e-07
1.43415e-07
1.45191e-07
1.46975e-07
1.48767e-07
1.50567e-07
1.52374e-07
1.54188e-07
1.56009e-07
1.57836e-07
1.5967e-07
1.61509e-07
1.63354e-07
1.65204e-07
1.6706e-07
1.68919e-07
1.70783e-07
1.72651e-07
1.74522e-07
1.76397e-07
1.78274e-07
1.80153e-07
1.82034e-07
1.83916e-07
1.85799e-07
1.87682e-07
1.89566e-07
1.91448e-07
1.93329e-07
1.95208e-07
1.97085e-07
1.98958e-07
2.00827e-07
2.02692e-07
2.04551e-07
2.06403e-07
2.08248e-07
2.10085e-07
2.11912e-07
2.13728e-07
2.15533e-07
2.17323e-07
2.19099e-07
2.20858e-07
2.22599e-07
2.24319e-07
2.26017e-07
2.2769e-07
2.29335e-07
2.30949e-07
2.3253e-07
2.34073e-07
2.35576e-07
2.37033e-07
2.3844e-07
2.39792e-07
2.41083e-07
2.42306e-07
2.43454e-07
2.44521e-07
2.45496e-07
2.4637e-07
2.47133e-07
2.47773e-07
2.48276e-07
2.48629e-07
2.48814e-07
1.38009e-13
4.42383e-13
7.76642e-13
1.14273e-12
1.54267e-12
1.97833e-12
2.4515e-12
2.96398e-12
3.51763e-12
4.11439e-12
4.75626e-12
5.44536e-12
6.18387e-12
6.97403e-12
7.81817e-12
8.71868e-12
9.678e-12
1.06986e-11
1.17832e-11
1.29342e-11
1.41545e-11
1.54467e-11
1.68138e-11
1.82585e-11
1.97839e-11
2.1393e-11
2.30889e-11
2.48746e-11
2.67536e-11
2.87291e-11
3.08045e-11
3.29832e-11
3.52688e-11
3.7665e-11
4.01755e-11
4.28039e-11
4.55544e-11
4.84307e-11
5.1437e-11
5.45774e-11
5.78562e-11
6.12777e-11
6.48464e-11
6.85668e-11
7.24436e-11
7.64815e-11
8.06855e-11
8.50605e-11
8.96115e-11
9.4344e-11
9.92631e-11
1.04374e-10
1.09683e-10
1.15196e-10
1.20918e-10
1.26855e-10
1.33014e-10
1.39401e-10
1.46022e-10
1.52884e-10
1.59994e-10
1.67358e-10
1.74984e-10
1.8288e-10
1.91052e-10
1.99507e-10
2.08255e-10
2.17303e-10
2.2666e-10
2.36333e-10
2.46331e-10
2.56663e-10
2.67339e-10
2.78367e-10
2.89757e-10
3.01519e-10
3.13662e-10
3.26198e-10
3.39136e-10
3.52487e-10
3.66263e-10
3.80474e-10
3.95132e-10
4.10249e-10
4.25836e-10
4.41908e-10
4.58475e-10
4.75551e-10
4.93151e-10
5.11286e-10
5.29971e-10
5.49221e-10
5.69051e-10
5.89474e-10
6.10507e-10
6.32166e-10
6.54466e-10
6.77424e-10
7.01057e-10
7.25382e-10
7.50417e-10
7.76181e-10
8.02691e-10
8.29967e-10
8.58028e-10
8.86893e-10
9.16585e-10
9.47122e-10
9.78526e-10
1.01082e-09
1.04402e-09
1.07816e-09
1.11326e-09
1.14934e-09
1.18642e-09
1.22453e-09
1.2637e-09
1.30395e-09
1.34531e-09
1.38781e-09
1.43146e-09
1.47631e-09
1.52238e-09
1.5697e-09
1.61829e-09
1.6682e-09
1.71945e-09
1.77208e-09
1.82611e-09
1.88158e-09
1.93852e-09
1.99697e-09
2.05697e-09
2.11855e-09
2.18174e-09
2.24659e-09
2.31314e-09
2.38141e-09
2.45146e-09
2.52333e-09
2.59704e-09
2.67266e-09
2.75021e-09
2.82975e-09
2.91132e-09
2.99496e-09
3.08072e-09
3.16865e-09
3.25879e-09
3.35121e-09
3.44593e-09
3.54302e-09
3.64253e-09
3.74451e-09
3.84901e-09
3.95609e-09
4.0658e-09
4.1782e-09
4.29334e-09
4.41129e-09
4.53211e-09
4.65584e-09
4.78257e-09
4.91233e-09
5.04521e-09
5.18126e-09
5.32055e-09
5.46315e-09
5.60911e-09
5.75851e-09
5.91143e-09
6.06792e-09
6.22806e-09
6.39192e-09
6.55957e-09
6.73109e-09
6.90656e-09
7.08605e-09
7.26963e-09
7.45739e-09
7.6494e-09
7.84574e-09
8.04651e-09
8.25177e-09
8.46161e-09
8.67611e-09
8.89537e-09
9.11946e-09
9.34848e-09
9.58251e-09
9.82164e-09
1.0066e-08
1.03156e-08
1.05706e-08
1.0831e-08
1.1097e-08
1.13687e-08
1.16461e-08
1.19294e-08
1.22186e-08
1.25139e-08
1.28153e-08
1.3123e-08
1.3437e-08
1.37575e-08
1.40845e-08
1.44182e-08
1.47586e-08
1.51059e-08
1.54602e-08
1.58215e-08
1.61901e-08
1.65659e-08
1.69491e-08
1.73399e-08
1.77383e-08
1.81444e-08
1.85583e-08
1.89802e-08
1.94101e-08
1.98483e-08
2.02947e-08
2.07495e-08
2.12128e-08
2.16848e-08
2.21655e-08
2.2655e-08
2.31535e-08
2.36611e-08
2.41779e-08
2.4704e-08
2.52395e-08
2.57846e-08
2.63393e-08
2.69038e-08
2.74781e-08
2.80624e-08
2.86569e-08
2.92615e-08
2.98765e-08
3.05019e-08
3.11378e-08
3.17845e-08
3.24418e-08
3.31101e-08
3.37893e-08
3.44796e-08
3.51812e-08
3.5894e-08
3.66182e-08
3.73539e-08
3.81013e-08
3.88603e-08
3.96312e-08
4.0414e-08
4.12088e-08
4.20156e-08
4.28347e-08
4.36661e-08
4.45098e-08
4.5366e-08
4.62347e-08
4.71161e-08
4.80102e-08
4.89171e-08
4.98368e-08
5.07696e-08
5.17153e-08
5.26741e-08
5.36461e-08
5.46314e-08
5.56299e-08
5.66418e-08
5.7667e-08
5.87058e-08
5.97581e-08
6.08239e-08
6.19034e-08
6.29965e-08
6.41033e-08
6.52239e-08
6.63582e-08
6.75063e-08
6.86683e-08
6.98441e-08
7.10337e-08
7.22372e-08
7.34546e-08
7.46859e-08
7.59311e-08
7.71902e-08
7.84632e-08
7.97501e-08
8.10508e-08
8.23653e-08
8.36937e-08
8.50359e-08
8.63919e-08
8.77616e-08
8.91449e-08
9.05419e-08
9.19525e-08
9.33767e-08
9.48143e-08
9.62653e-08
9.77296e-08
9.92072e-08
1.00698e-07
1.02202e-07
1.03719e-07
1.05248e-07
1.06791e-07
1.08346e-07
1.09914e-07
1.11494e-07
1.13087e-07
1.14692e-07
1.16309e-07
1.17937e-07
1.19578e-07
1.2123e-07
1.22894e-07
1.24569e-07
1.26255e-07
1.27952e-07
1.29659e-07
1.31378e-07
1.33106e-07
1.34845e-07
1.36594e-07
1.38353e-07
1.40121e-07
1.41898e-07
1.43685e-07
1.4548e-07
1.47284e-07
1.49097e-07
1.50917e-07
1.52745e-07
1.54581e-07
1.56424e-07
1.58274e-07
1.6013e-07
1.61993e-07
1.63862e-07
1.65737e-07
1.67617e-07
1.69502e-07
1.71392e-07
1.73286e-07
1.75184e-07
1.77086e-07
1.78991e-07
1.80899e-07
1.82809e-07
1.84721e-07
1.86634e-07
1.88548e-07
1.90463e-07
1.92378e-07
1.94292e-07
1.96204e-07
1.98115e-07
2.00023e-07
2.01928e-07
2.03829e-07
2.05726e-07
2.07617e-07
2.09501e-07
2.11379e-07
2.13247e-07
2.15107e-07
2.16955e-07
2.18792e-07
2.20615e-07
2.22423e-07
2.24214e-07
2.25987e-07
2.2774e-07
2.2947e-07
2.31175e-07
2.32853e-07
2.345e-07
2.36113e-07
2.37689e-07
2.39224e-07
2.40714e-07
2.42154e-07
2.43538e-07
2.44861e-07
2.46116e-07
2.47297e-07
2.48395e-07
2.494e-07
2.50304e-07
2.51096e-07
2.51761e-07
2.52287e-07
2.52657e-07
2.52853e-07
1.36073e-13
4.36049e-13
7.65131e-13
1.12516e-12
1.51824e-12
1.94647e-12
2.41192e-12
2.91663e-12
3.46265e-12
4.05205e-12
4.68693e-12
5.36945e-12
6.1018e-12
6.88624e-12
7.72506e-12
8.62063e-12
9.57538e-12
1.05918e-11
1.16724e-11
1.28199e-11
1.4037e-11
1.53263e-11
1.66908e-11
1.81333e-11
1.96568e-11
2.12644e-11
2.29591e-11
2.47442e-11
2.6623e-11
2.85987e-11
3.06748e-11
3.28548e-11
3.51424e-11
3.75411e-11
4.00547e-11
4.26871e-11
4.54422e-11
4.83239e-11
5.13365e-11
5.4484e-11
5.77709e-11
6.12014e-11
6.47802e-11
6.85118e-11
7.24008e-11
7.64522e-11
8.06708e-11
8.50617e-11
8.96301e-11
9.43812e-11
9.93204e-11
1.04453e-10
1.09786e-10
1.15323e-10
1.21072e-10
1.27037e-10
1.33226e-10
1.39645e-10
1.463e-10
1.53198e-10
1.60346e-10
1.67751e-10
1.75419e-10
1.8336e-10
1.91579e-10
2.00084e-10
2.08885e-10
2.17987e-10
2.27401e-10