/*--------------------------------*- C++ -*----------------------------------*\
  =========                 |
  \\      /  F ield         | OpenFOAM: The Open Source CFD Toolbox
   \\    /   O peration     | Website:  https://openfoam.org
    \\  /    A nd           | Version:  dev
     \\/     M anipulation  |
\*---------------------------------------------------------------------------*/
FoamFile
{
    format      ascii;
    class       volScalarField;
    location    "0.02";
    object      Exp1;
}
// * * * * * * * * * * * * * * * * * * * * * * * * * * * * * * * * * * * * * //

dimensions      [0 0 0 0 0 0 0];

internalField   uniform 0;

boundaryField
{
    frontAndBack
    {
        type            empty;
    }
    inlet
    {
        type            calculated;
        value           uniform 0;
    }
    outlet
    {
        type            calculated;
        value           uniform 0;
    }
    substrate
    {
        type            calculated;
        value           nonuniform List<scalar> 
400
(
0.0497046
0.0454869
0.0421278
0.0391462
0.0364387
0.0339646
0.031687
0.0295775
0.0276146
0.0257818
0.0240661
0.0224567
0.0209447
0.0195227
0.0181845
0.0169246
0.0157383
0.0146215
0.0135704
0.0125817
0.0116524
0.0107794
0.00996018
0.00919214
0.00847284
0.00779995
0.00717124
0.00658454
0.00603774
0.00552881
0.00505579
0.00461676
0.00420986
0.0038333
0.00348533
0.00316428
0.00286853
0.00259649
0.00234668
0.00211765
0.00190801
0.00171643
0.00154165
0.00138247
0.00123774
0.00110637
0.000987332
0.000879662
0.000782443
0.000694814
0.000615971
0.000545159
0.000481674
0.000424861
0.000374111
0.00032886
0.000288586
0.000252807
0.000221081
0.000193
0.000168192
0.000146317
0.000127063
0.000110149
9.53174e-05
8.23373e-05
7.09986e-05
6.11126e-05
5.25095e-05
4.5037e-05
3.85589e-05
3.29535e-05
2.81125e-05
2.39396e-05
2.03495e-05
1.72667e-05
1.46246e-05
1.23644e-05
1.04347e-05
8.79026e-06
7.39163e-06
6.20433e-06
5.19834e-06
4.3476e-06
3.62953e-06
3.0246e-06
2.51594e-06
2.08905e-06
1.73146e-06
1.4325e-06
1.18303e-06
9.7524e-07
8.02503e-07
6.59176e-07
5.40475e-07
4.42355e-07
3.614e-07
2.94732e-07
2.39933e-07
1.94974e-07
1.58157e-07
1.28064e-07
1.03513e-07
8.35197e-08
6.72689e-08
5.40843e-08
4.34071e-08
3.47764e-08
2.78127e-08
2.22044e-08
1.76959e-08
1.40782e-08
1.11806e-08
8.86386e-09
7.01498e-09
5.54212e-09
4.37093e-09
3.44129e-09
2.70471e-09
2.12213e-09
1.66218e-09
1.2997e-09
1.01453e-09
7.90582e-10
6.15023e-10
4.7764e-10
3.70319e-10
2.86628e-10
2.21478e-10
1.70851e-10
1.31575e-10
1.0116e-10
7.76465e-11
5.94997e-11
4.55186e-11
3.47654e-11
2.65089e-11
2.01802e-11
1.53373e-11
1.16376e-11
8.81604e-12
6.66777e-12
5.03484e-12
3.7957e-12
2.85694e-12
2.14692e-12
1.61079e-12
1.20662e-12
9.0243e-13
6.73862e-13
5.02394e-13
3.7397e-13
2.77939e-13
2.06245e-13
1.52807e-13
1.1304e-13
8.34927e-14
6.15739e-14
4.53397e-14
3.33347e-14
2.44711e-14
1.7937e-14
1.31277e-14
9.59345e-15
7.00014e-15
5.10021e-15
3.7104e-15
2.6953e-15
1.95502e-15
1.41596e-15
1.02403e-15
7.39501e-16
5.33247e-16
3.8396e-16
2.76065e-16
1.98203e-16
1.42096e-16
1.01726e-16
7.27205e-17
5.19115e-17
3.70044e-17
2.63407e-17
1.87236e-17
1.32905e-17
9.4207e-18
6.66837e-18
4.71359e-18
3.32722e-18
2.34538e-18
1.65099e-18
1.1606e-18
8.14754e-19
5.71189e-19
3.99893e-19
2.79589e-19
1.95215e-19
1.3612e-19
9.47877e-20
6.59178e-20
4.57802e-20
3.17525e-20
2.19941e-20
1.52148e-20
1.05113e-20
7.25239e-21
4.99738e-21
3.43908e-21
2.36365e-21
1.62243e-21
1.11222e-21
7.61493e-22
5.20701e-22
3.556e-22
2.42542e-22
1.65222e-22
1.1241e-22
7.63838e-23
5.18392e-23
3.5138e-23
2.37882e-23
1.60847e-23
1.08625e-23
7.32692e-24
4.9361e-24
3.3214e-24
2.23221e-24
1.49839e-24
1.00461e-24
6.72748e-25
4.49977e-25
3.00618e-25
2.00598e-25
1.33699e-25
8.90066e-26
5.91847e-26
3.9309e-26
2.60778e-26
1.72803e-26
1.14375e-26
7.56157e-27
4.99343e-27
3.29376e-27
2.17017e-27
1.42825e-27
9.38921e-28
6.16547e-28
4.04407e-28
2.64965e-28
1.73411e-28
1.13367e-28
7.40315e-29
4.82917e-29
3.14669e-29
2.04815e-29
1.33168e-29
8.64909e-30
5.61142e-30
3.63672e-30
2.35441e-30
1.52262e-30
9.83654e-31
6.34795e-31
4.0923e-31
2.6354e-31
1.69539e-31
1.08954e-31
6.99462e-32
4.48577e-32
2.87384e-32
1.83925e-32
1.17592e-32
7.5105e-33
4.79204e-33
3.05445e-33
1.94494e-33
1.23721e-33
7.86227e-34
4.99135e-34
3.1656e-34
2.00569e-34
1.26953e-34
8.0278e-35
5.07135e-35
3.20056e-35
2.01793e-35
1.27106e-35
7.99844e-36
5.02837e-36
3.15814e-36
1.98162e-36
1.24222e-36
7.77967e-37
4.86759e-37
3.04269e-37
1.90017e-37
1.18556e-37
7.39002e-38
4.60221e-38
2.86341e-38
1.77992e-38
1.1054e-38
6.85863e-39
4.25167e-39
2.63322e-39
1.62937e-39
1.0073e-39
6.22171e-40
3.83945e-40
2.36723e-40
1.45822e-40
8.9747e-41
5.51865e-41
3.39049e-41
2.08118e-41
1.27637e-41
7.82101e-42
4.78819e-42
2.92889e-42
1.79003e-42
1.09306e-42
6.66885e-43
4.06526e-43
2.47602e-43
1.50679e-43
9.16182e-44
5.56601e-44
3.37863e-44
2.04915e-44
1.24177e-44
7.51882e-45
4.5488e-45
2.74969e-45
1.66078e-45
1.00227e-45
6.04364e-46
3.64133e-46
2.19213e-46
1.31862e-46
7.92545e-47
4.75967e-47
2.85615e-47
1.71253e-47
1.026e-47
6.14201e-48
3.67392e-48
2.19586e-48
1.31141e-48
7.82585e-49
4.66642e-49
2.78034e-49
1.65529e-49
9.84718e-50
5.85349e-50
3.47683e-50
2.06357e-50
1.22383e-50
7.25259e-51
4.29471e-51
2.54124e-51
1.50255e-51
8.8774e-52
5.24102e-52
3.09187e-52
1.82265e-52
1.07364e-52
6.3197e-53
3.71716e-53
2.18477e-53
1.28316e-53
7.53078e-54
4.41653e-54
2.58825e-54
1.51571e-54
8.86976e-55
5.18674e-55
3.03086e-55
1.7698e-55
1.0327e-55
6.02164e-56
3.5087e-56
2.04301e-56
1.18875e-56
6.91198e-57
4.01616e-57
2.33193e-57
1.35306e-57
7.84547e-58
4.54589e-58
2.6322e-58
1.52308e-58
8.80701e-59
5.08918e-59
2.93901e-59
1.69651e-59
9.79347e-60
5.66304e-60
3.2972e-60
1.96392e-60
1.25134e-60
9.41194e-61
)
;
    }
    Wall
    {
        type            calculated;
        value           nonuniform List<scalar> 
400
(
0.0497046
0.045487
0.0421279
0.0391462
0.0364387
0.0339646
0.0316872
0.0295778
0.0276149
0.0257823
0.0240666
0.0224572
0.0209453
0.0195234
0.0181852
0.0169253
0.015739
0.0146222
0.0135712
0.0125825
0.0116531
0.0107802
0.00996093
0.00919286
0.00847355
0.00780064
0.00717191
0.00658518
0.00603836
0.00552941
0.00505636
0.0046173
0.00421037
0.00383379
0.0034858
0.00316472
0.00286894
0.00259688
0.00234705
0.00211799
0.00190833
0.00171673
0.00154193
0.00138273
0.00123797
0.00110659
0.000987535
0.00087985
0.000782615
0.000694973
0.000616116
0.000545292
0.000481796
0.000424972
0.000374212
0.000328952
0.000288669
0.000252883
0.000221149
0.000193062
0.000168248
0.000146367
0.000127108
0.000110189
9.53533e-05
8.23693e-05
7.10272e-05
6.1138e-05
5.2532e-05
4.50569e-05
3.85765e-05
3.2969e-05
2.81262e-05
2.39516e-05
2.036e-05
1.72759e-05
1.46326e-05
1.23714e-05
1.04408e-05
8.79555e-06
7.39621e-06
6.20829e-06
5.20176e-06
4.35055e-06
3.63206e-06
3.02677e-06
2.5178e-06
2.09064e-06
1.73282e-06
1.43365e-06
1.18401e-06
9.7607e-07
8.03206e-07
6.5977e-07
5.40976e-07
4.42776e-07
3.61753e-07
2.95028e-07
2.4018e-07
1.95181e-07
1.58329e-07
1.28207e-07
1.03632e-07
8.36183e-08
6.73504e-08
5.41516e-08
4.34625e-08
3.48219e-08
2.78501e-08
2.22351e-08
1.7721e-08
1.40987e-08
1.11972e-08
8.87739e-09
7.02596e-09
5.55101e-09
4.37812e-09
3.44709e-09
2.70938e-09
2.12588e-09
1.66519e-09
1.30211e-09
1.01646e-09
7.92121e-10
6.16249e-10
4.78614e-10
3.71092e-10
2.87241e-10
2.21963e-10
1.71233e-10
1.31877e-10
1.01397e-10
7.78325e-11
5.96454e-11
4.56326e-11
3.48545e-11
2.65783e-11
2.02342e-11
1.53792e-11
1.16701e-11
8.84122e-12
6.68722e-12
5.04985e-12
3.80726e-12
2.86583e-12
2.15374e-12
1.61601e-12
1.21061e-12
9.0548e-13
6.76187e-13
5.04163e-13
3.75313e-13
2.78958e-13
2.07017e-13
1.5339e-13
1.1348e-13
8.38241e-14
6.18232e-14
4.55269e-14
3.3475e-14
2.45761e-14
1.80155e-14
1.31863e-14
9.63705e-15
7.03256e-15
5.12428e-15
3.72824e-15
2.70851e-15
1.96478e-15
1.42316e-15
1.02934e-15
7.434e-16
5.3611e-16
3.86058e-16
2.77602e-16
1.99326e-16
1.42916e-16
1.02323e-16
7.31549e-17
5.22271e-17
3.72333e-17
2.65065e-17
1.88435e-17
1.3377e-17
9.48312e-18
6.7133e-18
4.74589e-18
3.35041e-18
2.36199e-18
1.66289e-18
1.1691e-18
8.2082e-19
5.75511e-19
4.02969e-19
2.81775e-19
1.96766e-19
1.37219e-19
9.55651e-20
6.64671e-20
4.61677e-20
3.20256e-20
2.21862e-20
1.53497e-20
1.0606e-20
7.31874e-21
5.0438e-21
3.47152e-21
2.38628e-21
1.6382e-21
1.1232e-21
7.69121e-22
5.25995e-22
3.59269e-22
2.45082e-22
1.66978e-22
1.13622e-22
7.72193e-23
5.24144e-23
3.55336e-23
2.40598e-23
1.6271e-23
1.09902e-23
7.41421e-24
4.99574e-24
3.36209e-24
2.25994e-24
1.51727e-24
1.01744e-24
6.81456e-25
4.55882e-25
3.04616e-25
2.03302e-25
1.35526e-25
9.0239e-26
6.00151e-26
3.98679e-26
2.64535e-26
1.75325e-26
1.16066e-26
7.67486e-27
5.06921e-27
3.3444e-27
2.20396e-27
1.45078e-27
9.53917e-28
6.26519e-28
4.1103e-28
2.69359e-28
1.76323e-28
1.15294e-28
7.53058e-29
4.91332e-29
3.20219e-29
2.08472e-29
1.35575e-29
8.8073e-30
5.7153e-30
3.70485e-30
2.39905e-30
1.55184e-30
1.00275e-30
6.47264e-31
4.17363e-31
2.68838e-31
1.72988e-31
1.11196e-31
7.1402e-32
4.58021e-32
2.93503e-32
1.87886e-32
1.20153e-32
7.67593e-33
4.89878e-33
3.12325e-33
1.98924e-33
1.2657e-33
8.04532e-34
5.10884e-34
3.24093e-34
2.05394e-34
1.3004e-34
8.22512e-35
5.19735e-35
3.28093e-35
2.06915e-35
1.30366e-35
8.20577e-36
5.16008e-36
3.24174e-36
2.03463e-36
1.27579e-36
7.9921e-37
5.00187e-37
3.12749e-37
1.95368e-37
1.21928e-37
7.60236e-38
4.73578e-38
2.94736e-38
1.83263e-38
1.13846e-38
7.06579e-39
4.38136e-39
2.71434e-39
1.68006e-39
1.03895e-39
6.41905e-40
3.96241e-40
2.44377e-40
1.50583e-40
9.27052e-41
5.70229e-41
3.50438e-41
2.15175e-41
1.32006e-41
8.09125e-42
4.95519e-42
3.032e-42
1.85363e-42
1.13225e-42
6.9102e-43
4.21374e-43
2.56728e-43
1.56283e-43
9.50567e-44
5.7768e-44
3.50774e-44
2.12815e-44
1.29008e-44
7.81391e-45
4.72891e-45
2.85953e-45
1.7277e-45
1.04301e-45
6.29147e-46
3.79194e-46
2.28359e-46
1.37412e-46
8.26185e-47
4.96343e-47
2.97947e-47
1.78709e-47
1.07105e-47
6.414e-48
3.83798e-48
2.29475e-48
1.37096e-48
8.18416e-49
4.88185e-49
2.90975e-49
1.73297e-49
1.03131e-49
6.13272e-50
3.64404e-50
2.16361e-50
1.28365e-50
7.60991e-51
4.508e-51
2.66846e-51
1.57837e-51
9.32891e-52
5.5097e-52
3.25162e-52
1.91756e-52
1.12999e-52
6.65396e-53
3.9153e-53
2.30213e-53
1.35262e-53
7.94158e-54
4.65929e-54
2.73161e-54
1.6003e-54
9.36853e-55
5.48062e-55
3.20388e-55
1.87159e-55
1.09254e-55
6.37317e-56
3.71506e-56
2.16406e-56
1.2597e-56
7.32757e-57
4.25941e-57
2.4742e-57
1.43622e-57
8.33111e-58
4.82932e-58
2.7975e-58
1.61941e-58
9.36807e-59
5.41571e-59
3.12892e-59
1.80691e-59
1.04352e-59
6.03664e-60
3.51602e-60
2.09478e-60
1.33476e-60
1.00378e-60
)
;
    }
}


// ************************************************************************* //
