/*--------------------------------*- C++ -*----------------------------------*\
  =========                 |
  \\      /  F ield         | OpenFOAM: The Open Source CFD Toolbox
   \\    /   O peration     | Website:  https://openfoam.org
    \\  /    A nd           | Version:  dev
     \\/     M anipulation  |
\*---------------------------------------------------------------------------*/
FoamFile
{
    format      ascii;
    class       volScalarField;
    location    "0.02";
    object      growth;
}
// * * * * * * * * * * * * * * * * * * * * * * * * * * * * * * * * * * * * * //

dimensions      [0 0 0 0 0 0 0];

internalField   uniform 0;

boundaryField
{
    frontAndBack
    {
        type            empty;
    }
    inlet
    {
        type            calculated;
        value           uniform 0;
    }
    outlet
    {
        type            calculated;
        value           uniform 0;
    }
    substrate
    {
        type            calculated;
        value           nonuniform List<scalar> 
400
(
0.0481633
0.043218
0.0392073
0.0356689
0.0324955
0.0296379
0.0270518
0.0247016
0.0225592
0.0206016
0.0188098
0.0171676
0.015661
0.014278
0.0130079
0.0118414
0.0107702
0.00978671
0.00888426
0.00805664
0.0072982
0.00660375
0.00596847
0.00538791
0.00485792
0.00437465
0.0039345
0.0035341
0.00317034
0.00284028
0.00254119
0.00227054
0.00202596
0.00180524
0.00160633
0.00142734
0.00126651
0.00112219
0.000992899
0.000877231
0.000773909
0.000681755
0.000599687
0.000526715
0.00046193
0.000404504
0.000353681
0.000308772
0.000269153
0.000234257
0.00020357
0.000176627
0.000153011
0.000132345
0.00011429
9.85414e-05
8.48281e-05
7.29068e-05
6.25605e-05
5.35962e-05
4.58424e-05
3.9147e-05
3.33752e-05
2.84081e-05
2.41408e-05
2.0481e-05
1.73475e-05
1.46693e-05
1.23842e-05
1.04377e-05
8.78266e-06
7.3778e-06
6.18737e-06
5.1804e-06
4.33009e-06
3.61331e-06
3.01016e-06
2.5035e-06
2.07864e-06
1.72299e-06
1.4258e-06
1.17789e-06
9.71459e-07
7.9986e-07
6.57467e-07
5.39515e-07
4.41981e-07
3.61472e-07
2.95131e-07
2.40561e-07
1.95752e-07
1.59022e-07
1.28967e-07
1.04417e-07
8.43984e-08
6.81035e-08
5.48626e-08
4.41221e-08
3.5425e-08
2.83946e-08
2.27215e-08
1.81515e-08
1.44766e-08
1.15264e-08
9.1622e-09
7.27083e-09
5.76033e-09
4.55608e-09
3.59763e-09
2.83611e-09
2.2321e-09
1.75383e-09
1.37578e-09
1.07744e-09
8.42422e-10
6.57587e-10
5.12469e-10
3.98725e-10
3.09722e-10
2.40196e-10
1.85975e-10
1.43761e-10
1.1095e-10
8.54893e-11
6.57655e-11
5.05112e-11
3.87331e-11
2.9654e-11
2.26669e-11
1.72985e-11
1.31807e-11
1.00272e-11
7.61613e-12
5.77572e-12
4.37316e-12
3.30601e-12
2.49536e-12
1.88055e-12
1.41502e-12
1.06308e-12
7.97438e-13
5.97253e-13
4.46633e-13
3.33486e-13
2.48622e-13
1.85071e-13
1.37555e-13
1.02083e-13
7.56445e-14
5.59685e-14
4.13482e-14
3.05013e-14
2.24662e-14
1.65232e-14
1.21342e-14
8.89787e-15
6.51506e-15
4.76333e-15
3.47748e-15
2.53503e-15
1.8453e-15
1.34128e-15
9.73509e-16
7.05559e-16
5.10623e-16
3.69014e-16
2.66295e-16
1.91894e-16
1.38084e-16
9.92219e-17
7.11964e-17
5.10147e-17
3.65025e-17
2.6082e-17
1.86103e-17
1.32605e-17
9.43551e-18
6.70455e-18
4.75746e-18
3.3712e-18
2.38561e-18
1.68586e-18
1.18974e-18
8.38482e-19
5.90132e-19
4.14782e-19
2.91144e-19
2.04087e-19
1.42871e-19
9.98839e-20
6.97385e-20
4.86268e-20
3.38617e-20
2.3549e-20
1.63557e-20
1.13449e-20
7.85903e-21
5.43721e-21
3.75685e-21
2.59247e-21
1.78669e-21
1.22979e-21
8.45396e-22
5.80418e-22
3.97991e-22
2.72558e-22
1.86424e-22
1.27351e-22
8.68887e-23
5.92087e-23
4.02969e-23
2.73919e-23
1.85969e-23
1.26104e-23
8.5406e-24
5.77724e-24
3.90326e-24
2.63397e-24
1.77531e-24
1.19513e-24
8.03601e-25
5.39696e-25
3.62029e-25
2.42564e-25
1.6233e-25
1.08508e-25
7.24464e-26
4.83134e-26
3.21822e-26
2.14122e-26
1.42301e-26
9.44617e-27
6.26336e-27
4.14825e-27
2.74429e-27
1.81344e-27
1.19698e-27
7.89195e-28
5.19751e-28
3.41918e-28
2.24681e-28
1.47479e-28
9.66974e-29
6.33318e-29
4.14337e-29
2.70777e-29
1.76765e-29
1.15269e-29
7.50858e-30
4.88581e-30
3.17577e-30
2.06205e-30
1.33747e-30
8.66585e-31
5.6089e-31
3.6265e-31
2.34229e-31
1.51126e-31
9.7406e-32
6.27164e-32
4.03391e-32
2.59194e-32
1.6637e-32
1.0668e-32
6.83353e-33
4.37287e-33
2.79542e-33
1.78521e-33
1.13893e-33
7.25882e-34
4.6217e-34
2.93971e-34
1.868e-34
1.18582e-34
7.52028e-35
4.76455e-35
3.01567e-35
1.90688e-35
1.20459e-35
7.60216e-36
4.79307e-36
3.01907e-36
1.89983e-36
1.19438e-36
7.50166e-37
4.70717e-37
2.95088e-37
1.84813e-37
1.1564e-37
7.22895e-38
4.51479e-38
2.81706e-38
1.75612e-38
1.09373e-38
6.80558e-39
4.2308e-39
2.62775e-39
1.63061e-39
1.01093e-39
6.26179e-40
3.87512e-40
2.39597e-40
1.48009e-40
9.13501e-41
5.63304e-41
3.4705e-41
2.13627e-41
1.31383e-41
8.07311e-42
4.95636e-42
3.04022e-42
1.86325e-42
1.14094e-42
6.98033e-43
4.26695e-43
2.60607e-43
1.59032e-43
9.69644e-44
5.90707e-44
3.59554e-44
2.1867e-44
1.32877e-44
8.06766e-45
4.89421e-45
2.96658e-45
1.79667e-45
1.08723e-45
6.57382e-46
3.97152e-46
2.3974e-46
1.44601e-46
8.71458e-47
5.24772e-47
3.1575e-47
1.89831e-47
1.14036e-47
6.84493e-48
4.10535e-48
2.46028e-48
1.47325e-48
8.81505e-49
5.27025e-49
3.14845e-49
1.87941e-49
1.12101e-49
6.68126e-50
3.97897e-50
2.36782e-50
1.40796e-50
8.36566e-51
4.96681e-51
2.94661e-51
1.74678e-51
1.03473e-51
6.12469e-52
3.62256e-52
2.14102e-52
1.26445e-52
7.46204e-53
4.40039e-53
2.593e-53
1.52684e-53
8.98385e-54
5.28219e-54
3.10347e-54
1.82206e-54
1.06897e-54
6.26685e-55
3.6713e-55
2.14921e-55
1.25726e-55
7.34951e-56
4.29322e-56
2.5061e-56
1.46186e-56
8.52127e-57
4.9636e-57
2.88925e-57
1.68061e-57
9.76892e-58
5.67444e-58
3.2938e-58
1.9106e-58
1.1075e-58
6.41533e-59
3.7136e-59
2.1482e-59
1.24181e-59
7.17371e-60
4.1413e-60
2.38913e-60
1.37739e-60
7.93621e-61
4.5706e-61
2.63242e-61
1.51866e-61
8.821e-62
5.24088e-62
3.33073e-62
2.50034e-62
)
;
    }
    Wall
    {
        type            calculated;
        value           nonuniform List<scalar> 
400
(
0.0481633
0.043218
0.0392074
0.0356689
0.0324955
0.0296379
0.027052
0.0247018
0.0225595
0.020602
0.0188103
0.0171681
0.0156616
0.0142786
0.0130085
0.011842
0.0107708
0.00978738
0.00888492
0.00805729
0.00729884
0.00660437
0.00596907
0.00538849
0.00485848
0.00437518
0.003935
0.00353458
0.00317079
0.0028407
0.00254159
0.00227092
0.00202631
0.00180556
0.00160663
0.00142762
0.00126676
0.00112243
0.000993116
0.000877429
0.00077409
0.000681921
0.000599839
0.000526852
0.000462055
0.000404617
0.000353783
0.000308865
0.000269237
0.000234332
0.000203637
0.000176687
0.000153065
0.000132393
0.000114333
9.85795e-05
8.4862e-05
7.29367e-05
6.2587e-05
5.36196e-05
4.58631e-05
3.91651e-05
3.33912e-05
2.84221e-05
2.41531e-05
2.04917e-05
1.73569e-05
1.46775e-05
1.23912e-05
1.04438e-05
8.78797e-06
7.38238e-06
6.19132e-06
5.1838e-06
4.33301e-06
3.61582e-06
3.01231e-06
2.50534e-06
2.08021e-06
1.72433e-06
1.42694e-06
1.17886e-06
9.72276e-07
8.0055e-07
6.58049e-07
5.40006e-07
4.42394e-07
3.61818e-07
2.95421e-07
2.40804e-07
1.95955e-07
1.59191e-07
1.29107e-07
1.04534e-07
8.44952e-08
6.81836e-08
5.49288e-08
4.41767e-08
3.54699e-08
2.84315e-08
2.27518e-08
1.81763e-08
1.44968e-08
1.15429e-08
9.17565e-09
7.28176e-09
5.7692e-09
4.56326e-09
3.60344e-09
2.8408e-09
2.23588e-09
1.75687e-09
1.37822e-09
1.0794e-09
8.43987e-10
6.58837e-10
5.13466e-10
3.99518e-10
3.10353e-10
2.40696e-10
1.86371e-10
1.44074e-10
1.11197e-10
8.56837e-11
6.59184e-11
5.06312e-11
3.88272e-11
2.97275e-11
2.27243e-11
1.73433e-11
1.32155e-11
1.00543e-11
7.63715e-12
5.79199e-12
4.38574e-12
3.31572e-12
2.50284e-12
1.88631e-12
1.41944e-12
1.06647e-12
8.00032e-13
5.99235e-13
4.48146e-13
3.34638e-13
2.49498e-13
1.85736e-13
1.38059e-13
1.02465e-13
7.59328e-14
5.6186e-14
4.1512e-14
3.06245e-14
2.25587e-14
1.65925e-14
1.21861e-14
8.93663e-15
6.54398e-15
4.78487e-15
3.4935e-15
2.54692e-15
1.85412e-15
1.3478e-15
9.78333e-16
7.09119e-16
5.13246e-16
3.70943e-16
2.67712e-16
1.92934e-16
1.38845e-16
9.97788e-17
7.16029e-17
5.13111e-17
3.67183e-17
2.62389e-17
1.87241e-17
1.3343e-17
9.49523e-18
6.74771e-18
4.7886e-18
3.39364e-18
2.40175e-18
1.69745e-18
1.19806e-18
8.44443e-19
5.94396e-19
4.17828e-19
2.93317e-19
2.05635e-19
1.43972e-19
1.00666e-19
7.02931e-20
4.90197e-20
3.41396e-20
2.37453e-20
1.64942e-20
1.14424e-20
7.92765e-21
5.48541e-21
3.79067e-21
2.61616e-21
1.80327e-21
1.24137e-21
8.53478e-22
5.86049e-22
4.0191e-22
2.75282e-22
1.88315e-22
1.28662e-22
8.77958e-23
5.98358e-23
4.07299e-23
2.76905e-23
1.88025e-23
1.27518e-23
8.63774e-24
5.84388e-24
3.94891e-24
2.66521e-24
1.79665e-24
1.2097e-24
8.13534e-25
5.46459e-25
3.66628e-25
2.45687e-25
1.64448e-25
1.09943e-25
7.34174e-26
4.89696e-26
3.26251e-26
2.17108e-26
1.44311e-26
9.58138e-27
6.35419e-27
4.20919e-27
2.78512e-27
1.84077e-27
1.21525e-27
8.01395e-28
5.27888e-28
3.47339e-28
2.28288e-28
1.49876e-28
9.82888e-29
6.43871e-29
4.21326e-29
2.75401e-29
1.79821e-29
1.17286e-29
7.64156e-30
4.97338e-30
3.23338e-30
2.0999e-30
1.36232e-30
8.82875e-31
5.71558e-31
3.69628e-31
2.38789e-31
1.54103e-31
9.9347e-32
6.39806e-32
4.11617e-32
2.64539e-32
1.69841e-32
1.0893e-32
6.97933e-33
4.46723e-33
2.85642e-33
1.8246e-33
1.16434e-33
7.42256e-34
4.7271e-34
3.00749e-34
1.91154e-34
1.21377e-34
7.69941e-35
4.87927e-35
3.08907e-35
1.95379e-35
1.23454e-35
7.79317e-36
4.91477e-36
3.09654e-36
1.94909e-36
1.22568e-36
7.70026e-37
4.83308e-37
3.03062e-37
1.89859e-37
1.18829e-37
7.43038e-38
4.64187e-38
2.89716e-38
1.80655e-38
1.12545e-38
7.00497e-39
4.35599e-39
2.70628e-39
1.67982e-39
1.04174e-39
6.4545e-40
3.99554e-40
2.47115e-40
1.52699e-40
9.42723e-41
5.81497e-41
3.58365e-41
2.20659e-41
1.35749e-41
8.34391e-42
5.12418e-42
3.14413e-42
1.92753e-42
1.18066e-42
7.22563e-43
4.41828e-43
2.69935e-43
1.64777e-43
1.00499e-43
6.12435e-44
3.729e-44
2.2686e-44
1.37899e-44
8.37528e-45
5.08249e-45
3.08172e-45
1.86702e-45
1.13018e-45
6.83579e-46
4.13118e-46
2.49462e-46
1.50515e-46
9.07413e-47
5.4661e-47
3.29003e-47
1.97867e-47
1.18905e-47
7.13965e-48
4.28361e-48
2.56802e-48
1.53831e-48
9.20757e-49
5.50688e-49
3.29099e-49
1.96521e-49
1.1726e-49
6.9913e-50
4.16513e-50
2.4795e-50
1.47491e-50
8.76671e-51
5.20684e-51
3.09016e-51
1.83256e-51
1.08595e-51
6.43029e-52
3.80475e-52
2.24955e-52
1.32905e-52
7.84627e-53
4.62875e-53
2.72861e-53
1.60731e-53
9.46104e-54
5.56493e-54
3.27087e-54
1.9211e-54
1.12751e-54
6.61269e-55
3.87545e-55
2.26962e-55
1.32823e-55
7.76751e-56
4.53922e-56
2.65077e-56
1.54688e-56
9.02052e-57
5.25657e-57
3.06103e-57
1.78127e-57
1.03583e-57
6.01928e-58
3.49542e-58
2.02841e-58
1.17628e-58
6.8166e-59
3.94755e-59
2.2845e-59
1.32117e-59
7.63537e-60
4.40971e-60
2.54506e-60
1.46793e-60
8.46151e-61
4.87524e-61
2.80909e-61
1.62125e-61
9.42041e-62
5.59841e-62
3.55805e-62
2.67055e-62
)
;
    }
}


// ************************************************************************* //
