/*--------------------------------*- C++ -*----------------------------------*\
  =========                 |
  \\      /  F ield         | OpenFOAM: The Open Source CFD Toolbox
   \\    /   O peration     | Website:  https://openfoam.org
    \\  /    A nd           | Version:  dev
     \\/     M anipulation  |
\*---------------------------------------------------------------------------*/
FoamFile
{
    format      ascii;
    class       volScalarField;
    location    "0.02";
    object      N1;
}
// * * * * * * * * * * * * * * * * * * * * * * * * * * * * * * * * * * * * * //

dimensions      [0 0 0 0 0 0 0];

internalField   nonuniform List<scalar> 
8000
(
0.381948
0.349569
0.323776
0.300879
0.280085
0.261081
0.243585
0.227378
0.212296
0.198213
0.185028
0.172659
0.161038
0.150109
0.139822
0.130137
0.121018
0.112432
0.104352
0.0967507
0.0896052
0.0828933
0.0765943
0.0706887
0.0651578
0.0599837
0.0551492
0.0506376
0.0464328
0.0425192
0.0388816
0.0355054
0.0323763
0.0294804
0.0268044
0.0243354
0.0220609
0.0199689
0.0180477
0.0162863
0.014674
0.0132006
0.0118565
0.0106323
0.00951917
0.00850884
0.00759337
0.00676531
0.00601762
0.00534369
0.00473732
0.00419272
0.00370447
0.00326753
0.00287722
0.00252921
0.00221947
0.0019443
0.0017003
0.00148433
0.00129354
0.0011253
0.000977221
0.000847136
0.000733071
0.000633243
0.000546039
0.000470008
0.000403843
0.000346373
0.000296551
0.00025344
0.000216209
0.000184116
0.000156505
0.000132796
0.000112475
9.50926e-05
8.02515e-05
6.76046e-05
5.68479e-05
4.77166e-05
3.99796e-05
3.34368e-05
2.79142e-05
2.32617e-05
1.93497e-05
1.60665e-05
1.33164e-05
1.10172e-05
9.09847e-06
7.50042e-06
6.17193e-06
5.06962e-06
4.15671e-06
3.40209e-06
2.77947e-06
2.26674e-06
1.84529e-06
1.49951e-06
1.21636e-06
9.84921e-07
7.96101e-07
6.42337e-07
5.17355e-07
4.15954e-07
3.33837e-07
2.6746e-07
2.13903e-07
1.70771e-07
1.36097e-07
1.08274e-07
8.59881e-08
6.81706e-08
5.39511e-08
4.26236e-08
3.36162e-08
2.64664e-08
2.08015e-08
1.6321e-08
1.27836e-08
9.99578e-09
7.80259e-09
6.08025e-09
4.73005e-09
3.67346e-09
2.84806e-09
2.20441e-09
1.70336e-09
1.31399e-09
1.01193e-09
7.78008e-10
5.97168e-10
4.57603e-10
3.50077e-10
2.67376e-10
2.03876e-10
1.55203e-10
1.17957e-10
8.95031e-11
6.78029e-11
5.12808e-11
3.87222e-11
2.91922e-11
2.19723e-11
1.65117e-11
1.23883e-11
9.27993e-12
6.94045e-12
5.18257e-12
3.86384e-12
2.87614e-12
2.13758e-12
1.5862e-12
1.17522e-12
8.69372e-13
6.42129e-13
4.73555e-13
3.48701e-13
2.56372e-13
1.88203e-13
1.37951e-13
1.00963e-13
7.37818e-14
5.3837e-14
3.92249e-14
2.85361e-14
2.07292e-14
1.50357e-14
1.089e-14
7.87568e-15
5.68739e-15
4.10112e-15
2.95297e-15
2.12318e-15
1.52435e-15
1.09284e-15
7.82356e-16
5.59282e-16
3.99243e-16
2.84595e-16
2.02583e-16
1.44e-16
1.02215e-16
7.24532e-17
5.12854e-17
3.62515e-17
2.55892e-17
1.80379e-17
1.26975e-17
8.926e-18
6.26615e-18
4.39292e-18
3.07551e-18
2.15028e-18
1.50137e-18
1.04688e-18
7.28998e-19
5.06964e-19
3.52088e-19
2.44204e-19
1.69153e-19
1.17014e-19
8.08408e-20
5.5777e-20
3.84341e-20
2.64494e-20
1.81784e-20
1.24778e-20
8.55395e-21
5.85653e-21
4.00464e-21
2.73487e-21
1.86536e-21
1.2707e-21
8.64529e-22
5.87457e-22
3.98687e-22
2.70241e-22
1.82951e-22
1.23705e-22
8.35422e-23
5.63503e-23
3.79628e-23
2.55444e-23
1.71676e-23
1.15239e-23
7.72631e-24
5.174e-24
3.46071e-24
2.31201e-24
1.54277e-24
1.02826e-24
6.84536e-25
4.5518e-25
3.02319e-25
2.00561e-25
1.329e-25
8.79638e-26
5.81549e-26
3.84037e-26
2.53318e-26
1.66905e-26
1.09845e-26
7.2211e-27
4.74177e-27
3.11023e-27
2.0378e-27
1.33368e-27
8.71886e-28
5.69365e-28
3.71404e-28
2.42007e-28
1.5752e-28
1.02418e-28
6.65189e-29
4.31566e-29
2.79694e-29
1.81074e-29
1.17103e-29
7.56514e-30
4.88211e-30
3.14733e-30
2.02684e-30
1.3039e-30
8.37948e-31
5.37946e-31
3.44994e-31
2.21022e-31
1.41454e-31
9.0438e-32
5.77621e-32
3.68549e-32
2.34913e-32
1.49583e-32
9.51523e-33
6.04675e-33
3.83877e-33
2.43462e-33
1.54255e-33
9.76379e-34
6.17406e-34
3.9003e-34
2.4615e-34
1.55196e-34
9.77552e-35
6.15148e-35
3.86724e-35
2.42888e-35
1.52404e-35
9.5537e-36
5.98323e-36
3.74359e-36
2.34009e-36
1.46139e-36
9.11793e-37
5.68356e-37
3.53949e-37
2.20221e-37
1.36891e-37
8.50144e-38
5.27487e-38
3.2699e-38
2.02517e-38
1.25313e-38
7.74703e-39
4.78502e-39
2.95286e-39
1.8206e-39
1.12149e-39
6.90231e-40
4.24431e-40
2.60757e-40
1.6006e-40
9.81635e-41
6.01502e-41
3.68253e-41
2.25257e-41
1.37668e-41
8.40652e-42
5.12891e-42
3.12653e-42
1.90427e-42
1.15885e-42
7.04621e-43
4.28073e-43
2.59845e-43
1.57597e-43
9.5503e-44
5.78261e-44
3.49841e-44
2.11474e-44
1.27728e-44
7.70828e-45
4.64808e-45
2.80049e-45
1.68593e-45
1.01413e-45
6.09535e-46
3.66059e-46
2.19662e-46
1.31708e-46
7.89079e-47
4.72372e-47
2.82555e-47
1.68881e-47
1.00859e-47
6.01874e-48
3.58887e-48
2.13831e-48
1.27306e-48
7.57332e-49
4.50183e-49
2.67398e-49
1.58706e-49
9.41231e-50
5.57786e-50
3.303e-50
1.95443e-50
1.15559e-50
6.82747e-51
4.03079e-51
2.37791e-51
1.40177e-51
8.25723e-52
4.86038e-52
2.85881e-52
1.68027e-52
9.86862e-53
5.79181e-53
3.39668e-53
1.99058e-53
1.16571e-53
6.8216e-54
3.98904e-54
2.33099e-54
1.36113e-54
7.94234e-55
4.63115e-55
2.69849e-55
1.57125e-55
9.14248e-56
5.3159e-56
3.08877e-56
1.79345e-56
1.04062e-56
6.03383e-57
3.49618e-57
2.02439e-57
1.17137e-57
6.77334e-58
3.91401e-58
2.26034e-58
1.30476e-58
7.53201e-59
4.35536e-59
2.53582e-59
1.51042e-59
9.62386e-60
7.23858e-60
0.385111
0.357081
0.332414
0.309834
0.288988
0.269729
0.251883
0.235286
0.219802
0.205317
0.191736
0.178981
0.166986
0.155697
0.145064
0.135047
0.12561
0.116722
0.108353
0.100478
0.0930728
0.0861149
0.0795835
0.0734584
0.0677208
0.0623522
0.0573349
0.0526519
0.0482866
0.0442229
0.0404452
0.0369384
0.0336876
0.0306787
0.0278979
0.0253317
0.0229673
0.0207922
0.0187945
0.0169626
0.0152856
0.0137528
0.0123542
0.0110802
0.00992168
0.00886994
0.0079168
0.00705452
0.00627581
0.0055738
0.00494207
0.0043746
0.00386576
0.00341032
0.00300342
0.00264055
0.00231754
0.00203053
0.00177598
0.00155065
0.00135155
0.00117595
0.00102137
0.00088555
0.000766436
0.000662171
0.000571076
0.000491638
0.000422497
0.000362431
0.00031035
0.000265277
0.000226344
0.000192778
0.000163895
0.000139089
0.000117825
9.96322e-05
8.40965e-05
7.08554e-05
5.95914e-05
5.00276e-05
4.1923e-05
3.50679e-05
2.92808e-05
2.44046e-05
2.03038e-05
1.68615e-05
1.39777e-05
1.15662e-05
9.55346e-06
7.8768e-06
6.48273e-06
5.3258e-06
4.36749e-06
3.57519e-06
2.92138e-06
2.38287e-06
1.94015e-06
1.57686e-06
1.27932e-06
1.03607e-06
8.37583e-07
6.7592e-07
5.44493e-07
4.37846e-07
3.51465e-07
2.81629e-07
2.25273e-07
1.79877e-07
1.43378e-07
1.14085e-07
9.06182e-08
7.18531e-08
5.68748e-08
4.49408e-08
3.54495e-08
2.79144e-08
2.19431e-08
1.72195e-08
1.34896e-08
1.05495e-08
8.23614e-09
6.41914e-09
4.99449e-09
3.87945e-09
3.00826e-09
2.32878e-09
1.79974e-09
1.38856e-09
1.06953e-09
8.22425e-10
6.31361e-10
4.83882e-10
3.70239e-10
2.8282e-10
2.15686e-10
1.64219e-10
1.24829e-10
9.47324e-11
7.17755e-11
5.42939e-11
4.10038e-11
3.0917e-11
2.32742e-11
1.74927e-11
1.31264e-11
9.8343e-12
7.3562e-12
5.49386e-12
4.09654e-12
3.04983e-12
2.26701e-12
1.6825e-12
1.24675e-12
9.2243e-13
6.81421e-13
5.02608e-13
3.70149e-13
2.72182e-13
1.99839e-13
1.46501e-13
1.07237e-13
7.83781e-14
5.71993e-14
4.16808e-14
3.03272e-14
2.20335e-14
1.59841e-14
1.15785e-14
8.37488e-15
6.04876e-15
4.36233e-15
3.14151e-15
2.25906e-15
1.62214e-15
1.16311e-15
8.32782e-16
5.95414e-16
4.25097e-16
3.03067e-16
2.15762e-16
1.5339e-16
1.08895e-16
7.71991e-17
5.46524e-17
3.86368e-17
2.72767e-17
1.92301e-17
1.35386e-17
9.51858e-18
6.68306e-18
4.68584e-18
3.28103e-18
2.29428e-18
1.60213e-18
1.11729e-18
7.78134e-19
5.41207e-19
3.75921e-19
2.60768e-19
1.80651e-19
1.24985e-19
8.63586e-20
5.9592e-20
4.10683e-20
2.82659e-20
1.94294e-20
1.33383e-20
9.14499e-21
6.26201e-21
4.28245e-21
2.92497e-21
1.99528e-21
1.35938e-21
9.2498e-22
6.28613e-22
4.26673e-22
2.89248e-22
1.95843e-22
1.32439e-22
8.94517e-23
6.03438e-23
4.06583e-23
2.73615e-23
1.83911e-23
1.23468e-23
8.27903e-24
5.54481e-24
3.70919e-24
2.47831e-24
1.65395e-24
1.10249e-24
7.34044e-25
4.8816e-25
3.24263e-25
2.15144e-25
1.4258e-25
9.43825e-26
6.24059e-26
4.12159e-26
2.719e-26
1.79169e-26
1.1793e-26
7.75353e-27
5.09199e-27
3.34034e-27
2.18882e-27
1.43268e-27
9.36719e-28
6.11774e-28
3.99114e-28
2.60093e-28
1.69312e-28
1.10097e-28
7.15145e-29
4.6403e-29
3.00768e-29
1.94739e-29
1.25954e-29
8.1379e-30
5.25233e-30
3.38637e-30
2.18103e-30
1.40325e-30
9.01892e-31
5.79061e-31
3.71403e-31
2.37968e-31
1.52316e-31
9.7393e-32
6.22111e-32
3.96978e-32
2.53061e-32
1.61156e-32
1.02526e-32
6.51602e-33
4.13713e-33
2.62412e-33
1.66279e-33
1.0526e-33
6.65676e-34
4.20568e-34
2.65451e-34
1.67383e-34
1.05442e-34
6.63591e-35
4.17222e-35
2.6207e-35
1.64457e-35
1.03104e-35
6.45777e-36
4.04092e-36
2.5262e-36
1.57779e-36
9.84515e-37
6.13748e-37
3.82256e-37
2.37857e-37
1.47869e-37
9.18415e-38
5.69905e-38
3.5332e-38
2.18846e-38
1.3543e-38
8.37336e-39
5.1724e-39
3.19223e-39
1.96838e-39
1.21265e-39
7.46404e-40
4.59018e-40
2.82034e-40
1.73137e-40
1.06194e-40
6.50773e-41
3.98456e-41
2.43756e-41
1.48989e-41
9.09865e-42
5.55172e-42
3.38459e-42
2.06165e-42
1.25474e-42
7.62999e-43
4.63583e-43
2.81427e-43
1.70702e-43
1.03455e-43
6.26466e-44
3.7904e-44
2.29146e-44
1.38415e-44
8.35398e-45
5.0379e-45
3.03564e-45
1.82767e-45
1.09949e-45
6.60899e-46
3.96943e-46
2.38217e-46
1.42846e-46
8.55887e-47
5.12413e-47
3.06534e-47
1.83229e-47
1.09438e-47
6.53128e-48
3.89484e-48
2.32082e-48
1.38184e-48
8.22119e-49
4.88738e-49
2.90325e-49
1.72329e-49
1.02211e-49
6.05771e-50
3.58746e-50
2.12294e-50
1.25533e-50
7.41743e-51
4.37947e-51
2.58383e-51
1.52329e-51
8.97385e-52
5.28266e-52
3.10746e-52
1.82657e-52
1.07288e-52
6.29718e-53
3.69338e-53
2.16464e-53
1.26775e-53
7.41935e-54
4.33896e-54
2.53567e-54
1.48078e-54
8.64123e-55
5.03909e-55
2.93644e-55
1.70994e-55
9.95031e-56
5.7861e-56
3.36225e-56
1.95241e-56
1.13295e-56
6.56971e-57
3.80699e-57
2.20454e-57
1.27572e-57
7.37731e-58
4.26336e-58
2.46228e-58
1.42141e-58
8.20554e-59
4.74433e-59
2.76106e-59
1.64243e-59
1.04341e-59
7.8174e-60
0.387402
0.362439
0.339059
0.317161
0.296658
0.277487
0.25956
0.242777
0.227042
0.212267
0.198374
0.185295
0.172973
0.161356
0.150402
0.14007
0.130328
0.121145
0.112492
0.104346
0.0966811
0.0894762
0.08271
0.0763624
0.0704143
0.0648469
0.0596423
0.054783
0.0502521
0.0460332
0.0421101
0.0384674
0.0350899
0.0319628
0.029072
0.0264038
0.0239447
0.021682
0.0196033
0.0176966
0.0159507
0.0143546
0.0128978
0.0115705
0.0103631
0.0092668
0.008273
0.00737371
0.00656136
0.00582883
0.00516947
0.00457702
0.00404564
0.0035699
0.00314475
0.0027655
0.00242781
0.00212769
0.00186144
0.00162568
0.00141731
0.00123348
0.00107162
0.000929358
0.000804562
0.000695292
0.000599798
0.0005165
0.000443979
0.00038096
0.000326303
0.000278987
0.000238105
0.000202849
0.000172503
0.000146433
0.00012408
0.000104949
8.86081e-05
7.46767e-05
6.28221e-05
5.2754e-05
4.42195e-05
3.69989e-05
3.09014e-05
2.57623e-05
2.14391e-05
1.78092e-05
1.47672e-05
1.22228e-05
1.00985e-05
8.32846e-06
6.8563e-06
5.63422e-06
4.62166e-06
3.78427e-06
3.09306e-06
2.52358e-06
2.05526e-06
1.67087e-06
1.35595e-06
1.09843e-06
8.88232e-07
7.16985e-07
5.77728e-07
4.64695e-07
3.73117e-07
2.99059e-07
2.39278e-07
1.91111e-07
1.52373e-07
1.21274e-07
9.63541e-08
7.64214e-08
6.05068e-08
4.78233e-08
3.77331e-08
2.97204e-08
2.33689e-08
1.83432e-08
1.43736e-08
1.12438e-08
8.78048e-09
6.84516e-09
5.32735e-09
4.13907e-09
3.2104e-09
2.4859e-09
1.92167e-09
1.48301e-09
1.14257e-09
8.78817e-10
6.74824e-10
5.17324e-10
3.95928e-10
3.0252e-10
2.30768e-10
1.75747e-10
1.33625e-10
1.01433e-10
7.68718e-11
5.81635e-11
4.39371e-11
3.3137e-11
2.49516e-11
1.8758e-11
1.40794e-11
1.05509e-11
7.89417e-12
5.89707e-12
4.39828e-12
3.27527e-12
2.43518e-12
1.80775e-12
1.33989e-12
9.91576e-13
7.32677e-13
5.40543e-13
3.98182e-13
2.92866e-13
2.15077e-13
1.5771e-13
1.15469e-13
8.44144e-14
6.1619e-14
4.4912e-14
3.26859e-14
2.37527e-14
1.72354e-14
1.24878e-14
9.03466e-15
6.52679e-15
4.70817e-15
3.39134e-15
2.43927e-15
1.75194e-15
1.25647e-15
8.99832e-16
6.43499e-16
4.59531e-16
3.2769e-16
2.33344e-16
1.65927e-16
1.17822e-16
8.35461e-17
5.91589e-17
4.1832e-17
2.95389e-17
2.08296e-17
1.46679e-17
1.03148e-17
7.24369e-18
5.08003e-18
3.55782e-18
2.48837e-18
1.73804e-18
1.21233e-18
8.44505e-19
5.87495e-19
4.0816e-19
2.83192e-19
1.96227e-19
1.3579e-19
9.38443e-20
6.47711e-20
4.46469e-20
3.07354e-20
2.11313e-20
1.45096e-20
9.95015e-21
6.81475e-21
4.66142e-21
3.18446e-21
2.17274e-21
1.48058e-21
1.00766e-21
6.84941e-22
4.65e-22
3.15294e-22
2.13522e-22
1.44422e-22
9.75653e-23
6.58304e-23
4.43639e-23
2.98612e-23
2.00752e-23
1.34801e-23
9.04071e-24
6.05614e-24
4.05203e-24
2.70791e-24
1.80752e-24
1.2051e-24
8.02515e-25
5.33798e-25
3.54646e-25
2.35348e-25
1.56e-25
1.03285e-25
6.83055e-26
4.51208e-26
2.97717e-26
1.96218e-26
1.29176e-26
8.49452e-27
5.57966e-27
3.66094e-27
2.39935e-27
1.57077e-27
1.02719e-27
6.70987e-28
4.37824e-28
2.85371e-28
1.85801e-28
1.20841e-28
7.8508e-29
5.095e-29
3.303e-29
2.13899e-29
1.38371e-29
8.94175e-30
5.77218e-30
3.7222e-30
2.39775e-30
1.54296e-30
9.91862e-31
6.36938e-31
4.08596e-31
2.61844e-31
1.67628e-31
1.07202e-31
6.84889e-32
4.37113e-32
2.78695e-32
1.77511e-32
1.12949e-32
7.17974e-33
4.55931e-33
2.8924e-33
1.8331e-33
1.16061e-33
7.34105e-34
4.63879e-34
2.92837e-34
1.84682e-34
1.1636e-34
7.32421e-35
4.60574e-35
2.89349e-35
1.81605e-35
1.13873e-35
7.13349e-36
4.46448e-36
2.79145e-36
1.74374e-36
1.08824e-36
6.78523e-37
4.22668e-37
2.63046e-37
1.63554e-37
1.016e-37
6.3056e-38
3.90987e-38
2.42216e-38
1.49916e-38
9.27045e-39
5.72746e-39
3.53535e-39
2.18029e-39
1.34341e-39
8.27023e-40
5.08675e-40
3.12594e-40
1.91928e-40
1.17737e-40
7.21623e-41
4.41905e-41
2.70377e-41
1.65286e-41
1.00954e-41
6.16088e-42
3.75654e-42
2.28856e-42
1.39305e-42
8.47234e-43
5.1484e-43
3.12591e-43
1.89633e-43
1.14945e-43
6.96151e-44
4.21265e-44
2.54711e-44
1.5388e-44
9.28876e-45
5.60245e-45
3.37631e-45
2.03308e-45
1.22324e-45
7.35392e-46
4.41749e-46
2.65144e-46
1.59016e-46
9.52913e-47
5.70584e-47
3.41382e-47
2.04088e-47
1.21914e-47
7.27692e-48
4.34012e-48
2.58652e-48
1.54025e-48
9.16498e-49
5.44923e-49
3.23746e-49
1.92194e-49
1.1401e-49
6.7579e-50
4.00269e-50
2.36899e-50
1.40102e-50
8.27942e-51
4.8891e-51
2.88491e-51
1.70102e-51
1.00223e-51
5.90065e-52
3.47146e-52
2.04081e-52
1.19888e-52
7.0377e-53
4.12827e-53
2.41985e-53
1.41741e-53
8.29635e-54
4.8525e-54
2.83616e-54
1.65648e-54
9.66786e-55
5.63852e-55
3.28618e-55
1.91386e-55
1.11384e-55
6.47784e-56
3.76472e-56
2.18641e-56
1.2689e-56
7.35903e-57
4.26494e-57
2.47005e-57
1.42955e-57
8.26798e-58
4.77868e-58
2.76024e-58
1.59357e-58
9.19982e-59
5.31856e-59
3.09346e-59
1.83705e-59
1.16262e-59
8.66484e-60
0.388664
0.36592
0.34392
0.322919
0.302993
0.284145
0.266349
0.249559
0.233719
0.21877
0.204656
0.191327
0.178735
0.166837
0.155597
0.144981
0.134957
0.125499
0.116579
0.108173
0.10026
0.0928171
0.0858236
0.0792598
0.0731062
0.0673443
0.0619559
0.0569233
0.0522292
0.0478569
0.0437899
0.0400124
0.0365088
0.0332641
0.0302637
0.0274934
0.0249396
0.022589
0.0204288
0.0184469
0.0166316
0.0149715
0.0134559
0.0120745
0.0108176
0.00967596
0.00864076
0.00770371
0.00685699
0.00609324
0.00540555
0.00478745
0.00423289
0.00373625
0.00329227
0.0028961
0.00254323
0.00222951
0.00195112
0.00170452
0.0014865
0.0012941
0.00112463
0.000975629
0.000844881
0.000730363
0.000630248
0.000542891
0.000466811
0.000400677
0.000343298
0.00029361
0.000250665
0.000213617
0.000181717
0.000154304
0.00013079
0.00011066
9.34596e-05
7.87904e-05
6.63039e-05
5.56955e-05
4.67001e-05
3.90868e-05
3.26557e-05
2.72335e-05
2.26706e-05
1.88382e-05
1.56254e-05
1.29372e-05
1.06922e-05
8.82091e-06
7.26401e-06
5.97116e-06
4.8996e-06
4.01313e-06
3.28116e-06
2.67789e-06
2.18163e-06
1.77417e-06
1.44024e-06
1.16707e-06
9.44039e-07
7.62273e-07
6.14413e-07
4.94358e-07
3.97059e-07
3.18348e-07
2.54792e-07
2.03565e-07
1.62353e-07
1.29258e-07
1.02729e-07
8.1503e-08
6.45502e-08
5.10349e-08
4.02795e-08
3.17359e-08
2.49613e-08
1.95992e-08
1.53625e-08
1.2021e-08
9.3903e-09
7.3228e-09
5.70081e-09
4.43057e-09
3.43754e-09
2.66259e-09
2.05887e-09
1.58937e-09
1.22488e-09
9.4241e-10
7.23872e-10
5.5509e-10
4.24958e-10
3.24797e-10
2.47835e-10
1.888e-10
1.43592e-10
1.09031e-10
8.2654e-11
6.25567e-11
4.72696e-11
3.56607e-11
2.68596e-11
2.01983e-11
1.51648e-11
1.13675e-11
8.50762e-12
6.35715e-12
4.74277e-12
3.53281e-12
2.6274e-12
1.95099e-12
1.44647e-12
1.07075e-12
7.91403e-13
5.84032e-13
4.30337e-13
3.16604e-13
2.32574e-13
1.70587e-13
1.24932e-13
9.13574e-14
6.67054e-14
4.86325e-14
3.54033e-14
2.57344e-14
1.86784e-14
1.3537e-14
9.79634e-15
7.07894e-15
5.10784e-15
3.68021e-15
2.64774e-15
1.90218e-15
1.36458e-15
9.77511e-16
6.99234e-16
4.99463e-16
3.56259e-16
2.53753e-16
1.80486e-16
1.28194e-16
9.09239e-17
6.43996e-17
4.55495e-17
3.21722e-17
2.26922e-17
1.59836e-17
1.12429e-17
7.89743e-18
5.5399e-18
3.88087e-18
2.71498e-18
1.8968e-18
1.3234e-18
9.22102e-19
6.41636e-19
4.45883e-19
3.09442e-19
2.14469e-19
1.48449e-19
1.02618e-19
7.08439e-20
4.88447e-20
3.36333e-20
2.31292e-20
1.58853e-20
1.08961e-20
7.46442e-21
5.10702e-21
3.4897e-21
2.38156e-21
1.62326e-21
1.10502e-21
7.513e-22
5.10169e-22
3.46001e-22
2.34371e-22
1.58561e-22
1.07142e-22
7.23085e-23
4.87407e-23
3.28147e-23
2.20658e-23
1.48201e-23
9.94166e-24
6.66116e-24
4.45783e-24
2.97977e-24
1.98944e-24
1.32668e-24
8.83674e-25
5.87911e-25
3.90684e-25
2.5932e-25
1.71928e-25
1.13856e-25
7.53124e-26
4.97602e-26
3.284e-26
2.16487e-26
1.42551e-26
9.37603e-27
6.16e-27
4.04257e-27
2.65003e-27
1.73525e-27
1.135e-27
7.41562e-28
4.83976e-28
3.1552e-28
2.05473e-28
1.33664e-28
8.68563e-29
5.63795e-29
3.65574e-29
2.36791e-29
1.53212e-29
9.90278e-30
6.39386e-30
4.12393e-30
2.65708e-30
1.71018e-30
1.09958e-30
7.06253e-31
4.53152e-31
2.90456e-31
1.85981e-31
1.18964e-31
7.60179e-32
4.85262e-32
3.09454e-32
1.97141e-32
1.25465e-32
7.97686e-33
5.06649e-33
3.21478e-33
2.03781e-33
1.29047e-33
8.164e-34
5.1598e-34
3.2579e-34
2.05504e-34
1.29503e-34
8.15306e-35
5.12793e-35
3.22216e-35
2.02272e-35
1.26856e-35
7.94825e-36
4.97533e-36
3.11144e-36
1.94399e-36
1.21344e-36
7.56725e-37
4.71469e-37
2.93471e-37
1.82506e-37
1.13393e-37
7.03881e-38
4.3653e-38
2.70479e-38
1.67439e-38
1.03559e-38
6.39923e-39
3.95073e-39
2.4369e-39
1.50179e-39
9.24687e-40
5.68847e-40
3.49633e-40
2.14707e-40
1.31734e-40
8.07555e-41
4.94614e-41
3.0268e-41
1.85065e-41
1.13055e-41
6.90055e-42
4.20828e-42
2.56421e-42
1.56111e-42
9.49608e-43
5.77149e-43
3.50482e-43
2.12657e-43
1.28922e-43
7.80936e-44
4.72652e-44
2.8583e-44
1.72709e-44
1.04271e-44
6.29008e-45
3.79135e-45
2.28338e-45
1.37407e-45
8.26204e-46
4.96382e-46
2.97985e-46
1.78742e-46
1.07129e-46
6.41574e-47
3.83918e-47
2.29556e-47
1.37149e-47
8.18764e-48
4.88408e-48
2.91117e-48
1.73386e-48
1.03187e-48
6.13617e-49
3.64616e-49
2.16491e-49
1.28443e-49
7.61469e-50
4.51088e-50
2.67018e-50
1.5794e-50
9.33502e-51
5.51331e-51
3.25375e-51
1.91881e-51
1.13072e-51
6.65818e-52
3.91774e-52
2.30354e-52
1.35343e-52
7.94615e-53
4.66188e-53
2.73306e-53
1.60111e-53
9.37304e-54
5.48309e-54
3.20522e-54
1.87231e-54
1.09292e-54
6.37514e-55
3.71606e-55
2.16455e-55
1.25993e-55
7.32854e-56
4.25976e-56
2.47428e-56
1.43618e-56
8.33043e-57
4.82864e-57
2.79694e-57
1.61898e-57
9.36491e-58
5.41347e-58
3.12733e-58
1.80572e-58
1.04252e-58
6.02641e-59
3.50329e-59
2.07705e-59
1.30967e-59
9.71128e-60
0.389397
0.368231
0.347467
0.327377
0.308101
0.289685
0.272144
0.255467
0.239632
0.224607
0.210357
0.196848
0.184046
0.17192
0.160439
0.149575
0.139303
0.129597
0.120435
0.111794
0.103652
0.0959884
0.0887838
0.0820183
0.0756728
0.0697285
0.0641674
0.0589715
0.0541235
0.0496061
0.045403
0.0414976
0.0378744
0.0345179
0.031413
0.0285455
0.0259011
0.0234665
0.0212284
0.0191744
0.0172924
0.0155708
0.0139986
0.0125652
0.0112605
0.0100751
0.00899986
0.00802627
0.00714624
0.00635219
0.00563699
0.00499395
0.00441683
0.0038998
0.00343745
0.00302475
0.00265704
0.00233001
0.0020397
0.00178247
0.00155497
0.00135414
0.00117718
0.00102155
0.000884928
0.000765227
0.000660545
0.000569173
0.000489567
0.000420345
0.000360267
0.000308223
0.000263225
0.000224394
0.000190947
0.000162194
0.000137523
0.000116395
9.83351e-05
8.29277e-05
6.98083e-05
5.86585e-05
4.92005e-05
4.11931e-05
3.44267e-05
2.87198e-05
2.39157e-05
1.98793e-05
1.64944e-05
1.36612e-05
1.12942e-05
9.32059e-06
7.678e-06
6.31353e-06
5.18221e-06
4.24599e-06
3.47267e-06
2.83511e-06
2.31047e-06
1.87955e-06
1.52627e-06
1.23719e-06
1.00108e-06
8.08592e-07
6.51958e-07
5.24735e-07
4.21592e-07
3.38126e-07
2.70707e-07
2.1635e-07
1.72604e-07
1.37463e-07
1.09285e-07
8.67317e-08
6.8713e-08
5.43432e-08
4.29041e-08
3.38144e-08
2.66045e-08
2.08958e-08
1.6384e-08
1.28243e-08
1.00209e-08
7.81698e-09
6.08741e-09
4.73248e-09
3.67292e-09
2.84577e-09
2.20119e-09
1.69976e-09
1.31035e-09
1.00847e-09
7.74851e-10
5.94361e-10
4.55159e-10
3.47984e-10
2.65608e-10
2.024e-10
1.53981e-10
1.16954e-10
8.86867e-11
6.71423e-11
5.07495e-11
3.82972e-11
2.88539e-11
2.17043e-11
1.63002e-11
1.22222e-11
9.14992e-12
6.83907e-12
5.10378e-12
3.8028e-12
2.82901e-12
2.1013e-12
1.55835e-12
1.1539e-12
8.53097e-13
6.29738e-13
4.64145e-13
3.41573e-13
2.50986e-13
1.84143e-13
1.34897e-13
9.86716e-14
7.20658e-14
5.2555e-14
3.82693e-14
2.78252e-14
2.02014e-14
1.46448e-14
1.06009e-14
7.66238e-15
5.5303e-15
3.98566e-15
2.86827e-15
2.06115e-15
1.47902e-15
1.05977e-15
7.58274e-16
5.41777e-16
3.86542e-16
2.75395e-16
1.95931e-16
1.39199e-16
9.87553e-17
6.99644e-17
4.94981e-17
3.49701e-17
2.4672e-17
1.73826e-17
1.223e-17
8.59298e-18
6.02933e-18
4.22478e-18
2.95632e-18
2.06592e-18
1.44175e-18
1.00482e-18
6.99365e-19
4.8612e-19
3.37449e-19
2.33937e-19
1.61964e-19
1.11988e-19
7.73311e-20
5.33302e-20
3.67308e-20
2.52654e-20
1.73566e-20
1.19082e-20
8.15964e-21
5.584e-21
3.81653e-21
2.60522e-21
1.77612e-21
1.20937e-21
8.22432e-22
5.58601e-22
3.78935e-22
2.56739e-22
1.73734e-22
1.17421e-22
7.92639e-23
5.34413e-23
3.59875e-23
2.42048e-23
1.62603e-23
1.09103e-23
7.31181e-24
4.89436e-24
3.27229e-24
2.18522e-24
1.45756e-24
9.71067e-25
6.46196e-25
4.2951e-25
2.85154e-25
1.89096e-25
1.25253e-25
8.2869e-26
5.47647e-26
3.61506e-26
2.38362e-26
1.56989e-26
1.03278e-26
6.78678e-27
4.45485e-27
2.92091e-27
1.91302e-27
1.25154e-27
8.17876e-28
5.33894e-28
3.48135e-28
2.2676e-28
1.47541e-28
9.58939e-29
6.22588e-29
4.03779e-29
2.6159e-29
1.69292e-29
1.09444e-29
7.0678e-30
4.55953e-30
2.93833e-30
1.89158e-30
1.21646e-30
7.81478e-31
5.01518e-31
3.21521e-31
2.05913e-31
1.31739e-31
8.41979e-32
5.37584e-32
3.42887e-32
2.18483e-32
1.39074e-32
8.84382e-33
5.61823e-33
3.56555e-33
2.26059e-33
1.43182e-33
9.05999e-34
5.72717e-34
3.61683e-34
2.28187e-34
1.43825e-34
9.05641e-35
5.69717e-35
3.58051e-35
2.24809e-35
1.41016e-35
8.83714e-36
5.53277e-36
3.46069e-36
2.16259e-36
1.35014e-36
8.42127e-37
5.24774e-37
3.26711e-37
2.03214e-37
1.26282e-37
7.8403e-38
4.86324e-38
3.01386e-38
1.86606e-38
1.15434e-38
7.13428e-39
4.40531e-39
2.71777e-39
1.67518e-39
1.03163e-39
6.34747e-40
3.90206e-40
2.39664e-40
1.47073e-40
9.01739e-41
5.52396e-41
3.38098e-41
2.06756e-41
1.26328e-41
7.712e-42
4.70394e-42
2.86672e-42
1.74558e-42
1.062e-42
6.45567e-43
3.92096e-43
2.37946e-43
1.44278e-43
8.74099e-44
5.29126e-44
3.20035e-44
1.93409e-44
1.16788e-44
7.04633e-45
4.24788e-45
2.55875e-45
1.54003e-45
9.26148e-46
5.56519e-46
3.34141e-46
2.00461e-46
1.20167e-46
7.19768e-47
4.3078e-47
2.57617e-47
1.5394e-47
9.19147e-48
5.48376e-48
3.26913e-48
1.94737e-48
1.15912e-48
6.89397e-49
4.0971e-49
2.43304e-49
1.44374e-49
8.56048e-50
5.07196e-50
3.00278e-50
1.7764e-50
1.05011e-50
6.20294e-51
3.66131e-51
2.15949e-51
1.27274e-51
7.49565e-52
4.41119e-52
2.59407e-52
1.52436e-52
8.9511e-53
5.25227e-53
3.07965e-53
1.80443e-53
1.05649e-53
6.18122e-54
3.61386e-54
2.11134e-54
1.23263e-54
7.19117e-55
4.19234e-55
2.44234e-55
1.42183e-55
8.27152e-56
4.80858e-56
2.79347e-56
1.6217e-56
9.40788e-57
5.45397e-57
3.15961e-57
1.82918e-57
1.05823e-57
6.11809e-58
3.53487e-58
2.04129e-58
1.17861e-58
6.81264e-59
3.9586e-59
2.34376e-59
1.47314e-59
1.08749e-59
0.389902
0.369837
0.350054
0.330764
0.312106
0.294143
0.276908
0.260411
0.244653
0.229623
0.215305
0.201679
0.188724
0.17642
0.164744
0.153676
0.143193
0.133276
0.123903
0.115056
0.106713
0.0988548
0.0914629
0.0845179
0.078001
0.0718936
0.0661776
0.0608351
0.0558485
0.0512005
0.0468744
0.0428537
0.0391222
0.0356644
0.0324649
0.0295091
0.0267825
0.0242715
0.0219625
0.0198428
0.0179001
0.0161224
0.0144984
0.0130174
0.011669
0.0104435
0.00933158
0.00832444
0.00741383
0.00659192
0.0058514
0.0051854
0.00458748
0.00405165
0.00357234
0.00314436
0.00276292
0.00242358
0.00212224
0.00185515
0.00161886
0.00141019
0.00122628
0.00106447
0.000922391
0.000797862
0.000688925
0.000593806
0.00051091
0.000438804
0.000376201
0.000321954
0.000275035
0.000234533
0.000199637
0.000169627
0.000143869
0.000121803
0.000102936
8.68341e-05
7.3119e-05
6.14592e-05
5.15655e-05
4.31864e-05
3.61036e-05
3.01279e-05
2.5096e-05
2.08668e-05
1.7319e-05
1.43485e-05
1.18661e-05
9.7955e-06
8.07167e-06
6.63925e-06
5.45122e-06
4.46775e-06
3.65515e-06
2.985e-06
2.43335e-06
1.98011e-06
1.60842e-06
1.30417e-06
1.05559e-06
8.52877e-07
6.8787e-07
5.53804e-07
4.4508e-07
3.5707e-07
2.85959e-07
2.28607e-07
1.82437e-07
1.45336e-07
1.15579e-07
9.17533e-08
7.27127e-08
5.75233e-08
4.5428e-08
3.5814e-08
2.81859e-08
2.21443e-08
1.73679e-08
1.35984e-08
1.06288e-08
8.29356e-09
6.46039e-09
5.02388e-09
3.90018e-09
3.02271e-09
2.33871e-09
1.80646e-09
1.393e-09
1.07238e-09
8.24185e-10
6.3238e-10
4.84409e-10
3.70449e-10
2.82833e-10
2.15585e-10
1.64057e-10
1.24641e-10
9.45417e-11
7.15945e-11
5.41294e-11
4.08589e-11
3.07922e-11
2.31686e-11
1.74046e-11
1.30538e-11
9.77503e-12
7.30824e-12
5.45535e-12
4.06583e-12
3.02548e-12
2.24782e-12
1.66744e-12
1.235e-12
9.13295e-13
6.74349e-13
4.97154e-13
3.65958e-13
2.68973e-13
1.9739e-13
1.44638e-13
1.05824e-13
7.7309e-14
5.6393e-14
4.10742e-14
2.98722e-14
2.16929e-14
1.57299e-14
1.13892e-14
8.23423e-15
5.9445e-15
4.28522e-15
3.0846e-15
2.21715e-15
1.59134e-15
1.14053e-15
8.16256e-16
5.83345e-16
4.16299e-16
2.96667e-16
2.11114e-16
1.50022e-16
1.06459e-16
7.54399e-17
5.33844e-17
3.77246e-17
2.66216e-17
1.87604e-17
1.32025e-17
9.27842e-18
6.51177e-18
4.56388e-18
3.19434e-18
2.23275e-18
1.55854e-18
1.08646e-18
7.56356e-19
5.25852e-19
3.65111e-19
2.5317e-19
1.75319e-19
1.21249e-19
8.37446e-20
5.77659e-20
3.97946e-20
2.73788e-20
1.88125e-20
1.29099e-20
8.84795e-21
6.05634e-21
4.14026e-21
2.8268e-21
1.9276e-21
1.31279e-21
8.92953e-22
6.06628e-22
4.11602e-22
2.7893e-22
1.8879e-22
1.27623e-22
8.6169e-23
5.81089e-23
3.91387e-23
2.63297e-23
1.76914e-23
1.1873e-23
7.95858e-24
5.32838e-24
3.56319e-24
2.37996e-24
1.58778e-24
1.05803e-24
7.04207e-25
4.68162e-25
3.10877e-25
2.06195e-25
1.36605e-25
9.03979e-26
5.9752e-26
3.94504e-26
2.60171e-26
1.71385e-26
1.12771e-26
7.41203e-27
4.8662e-27
3.19123e-27
2.09047e-27
1.36788e-27
8.94079e-28
5.83748e-28
3.80715e-28
2.48028e-28
1.6141e-28
1.04927e-28
6.81363e-29
4.4198e-29
2.86392e-29
1.85377e-29
1.19864e-29
7.7422e-30
4.99551e-30
3.21987e-30
2.0732e-30
1.3335e-30
8.56823e-31
5.49971e-31
3.52647e-31
2.25888e-31
1.44544e-31
9.23987e-32
5.90049e-32
3.76417e-32
2.3989e-32
1.52728e-32
9.71377e-33
6.17196e-33
3.91765e-33
2.48426e-33
1.57376e-33
9.95987e-34
6.2971e-34
3.97744e-34
2.50982e-34
1.58219e-34
9.96448e-35
6.26948e-35
3.94086e-35
2.47476e-35
1.55261e-35
9.73145e-36
6.0937e-36
3.81219e-36
2.38264e-36
1.48777e-36
9.28124e-37
5.78458e-37
3.60193e-37
2.24076e-37
1.3927e-37
8.64805e-38
5.36515e-38
3.32544e-38
2.05931e-38
1.27409e-38
7.87569e-39
4.8639e-39
3.00117e-39
1.85016e-39
1.13957e-39
7.01273e-40
4.3117e-40
2.64867e-40
1.62564e-40
9.96878e-41
6.10773e-41
3.73887e-41
2.28678e-41
1.39744e-41
8.53233e-42
5.20511e-42
3.17264e-42
1.93215e-42
1.17569e-42
7.14789e-43
4.34206e-43
2.63541e-43
1.59822e-43
9.68418e-44
5.8631e-44
3.54675e-44
2.14376e-44
1.29468e-44
7.81256e-45
4.71051e-45
2.83784e-45
1.70826e-45
1.02747e-45
6.17496e-46
3.70807e-46
2.22492e-46
1.33393e-46
7.99104e-47
4.78333e-47
2.86096e-47
1.70983e-47
1.02106e-47
6.09265e-48
3.63265e-48
2.16422e-48
1.28838e-48
7.66388e-49
4.55531e-49
2.70554e-49
1.60567e-49
9.52195e-50
5.64242e-50
3.34098e-50
1.97676e-50
1.16871e-50
6.90451e-51
4.07599e-51
2.40441e-51
1.41729e-51
8.34812e-52
4.91356e-52
2.8899e-52
1.69844e-52
9.97465e-53
5.85367e-53
3.43275e-53
2.0116e-53
1.17794e-53
6.89278e-54
4.03043e-54
2.35503e-54
1.37509e-54
8.02338e-55
4.67814e-55
2.72572e-55
1.58702e-55
9.23375e-56
5.36869e-56
3.11928e-56
1.81108e-56
1.0508e-56
6.09252e-57
3.53001e-57
2.04388e-57
1.1826e-57
6.83801e-58
3.95132e-58
2.28203e-58
1.31771e-58
7.61642e-59
4.42414e-59
2.61651e-59
1.64032e-59
1.20644e-59
0.39026
0.370965
0.351916
0.333269
0.315141
0.297589
0.280654
0.264357
0.24871
0.233717
0.219377
0.205682
0.192623
0.180188
0.168363
0.157133
0.146482
0.136393
0.126848
0.117829
0.109319
0.101298
0.0937491
0.086653
0.0799914
0.073746
0.0678989
0.0624319
0.0573276
0.0525686
0.0481379
0.0440188
0.040195
0.0366507
0.0333704
0.0303391
0.0275422
0.0249657
0.022596
0.0204199
0.018425
0.0165991
0.0149307
0.0134087
0.0120227
0.0107627
0.00961911
0.00858305
0.00764603
0.00680007
0.00603767
0.0053518
0.00473589
0.00418378
0.00368978
0.00324856
0.0028552
0.00250517
0.00219425
0.00191859
0.00167465
0.00145917
0.0012692
0.00110202
0.000955173
0.000826435
0.000713783
0.000615394
0.000529623
0.000454996
0.000390186
0.00033401
0.00028541
0.000243444
0.000207276
0.000176165
0.000149454
0.000126565
0.000106988
9.02764e-05
7.60378e-05
6.39294e-05
5.36522e-05
4.49459e-05
3.75844e-05
3.1372e-05
2.61391e-05
2.17399e-05
1.80484e-05
1.49567e-05
1.23723e-05
1.02161e-05
8.42045e-06
6.92795e-06
5.68975e-06
4.66446e-06
3.81708e-06
3.11805e-06
2.54247e-06
2.06944e-06
1.68142e-06
1.36371e-06
1.10407e-06
8.92276e-07
7.19831e-07
5.79685e-07
4.65999e-07
3.73948e-07
2.99552e-07
2.39534e-07
1.91206e-07
1.52361e-07
1.21195e-07
9.62364e-08
7.62846e-08
6.03641e-08
4.76834e-08
3.76014e-08
2.96e-08
2.32611e-08
1.82483e-08
1.42912e-08
1.11731e-08
8.72041e-09
6.79455e-09
5.28502e-09
4.10391e-09
3.18138e-09
2.46207e-09
1.9022e-09
1.46718e-09
1.12976e-09
8.68491e-10
6.66533e-10
5.10692e-10
3.90641e-10
2.9832e-10
2.27443e-10
1.73122e-10
1.31559e-10
9.98119e-11
7.56031e-11
5.71733e-11