/*--------------------------------*- C++ -*----------------------------------*\
  =========                 |
  \\      /  F ield         | OpenFOAM: The Open Source CFD Toolbox
   \\    /   O peration     | Website:  https://openfoam.org
    \\  /    A nd           | Version:  dev
     \\/     M anipulation  |
\*---------------------------------------------------------------------------*/
FoamFile
{
    format      ascii;
    class       volScalarField;
    location    "0.58";
    object      Exp1;
}
// * * * * * * * * * * * * * * * * * * * * * * * * * * * * * * * * * * * * * //

dimensions      [0 0 0 0 0 0 0];

internalField   uniform 0;

boundaryField
{
    frontAndBack
    {
        type            empty;
    }
    inlet
    {
        type            calculated;
        value           uniform 0;
    }
    outlet
    {
        type            calculated;
        value           uniform 0;
    }
    substrate
    {
        type            calculated;
        value           nonuniform List<scalar> 
400
(
6.80136e-15
2.16625e-14
3.80121e-14
5.57812e-14
7.49814e-14
9.56793e-14
1.1794e-13
1.4183e-13
1.67428e-13
1.94814e-13
2.24078e-13
2.55312e-13
2.8861e-13
3.24073e-13
3.61801e-13
4.01896e-13
4.44465e-13
4.89614e-13
5.37451e-13
5.88086e-13
6.41631e-13
6.982e-13
7.57909e-13
8.20875e-13
8.87217e-13
9.57059e-13
1.03052e-12
1.10774e-12
1.18884e-12
1.27395e-12
1.3632e-12
1.45675e-12
1.55472e-12
1.65726e-12
1.76452e-12
1.87665e-12
1.9938e-12
2.11614e-12
2.24382e-12
2.377e-12
2.51586e-12
2.66057e-12
2.81131e-12
2.96825e-12
3.13158e-12
3.3015e-12
3.47819e-12
3.66185e-12
3.85269e-12
4.05092e-12
4.25675e-12
4.47039e-12
4.69207e-12
4.92203e-12
5.16049e-12
5.4077e-12
5.66391e-12
5.92936e-12
6.20432e-12
6.48905e-12
6.78383e-12
7.08894e-12
7.40465e-12
7.73128e-12
8.06911e-12
8.41845e-12
8.77963e-12
9.15297e-12
9.5388e-12
9.93747e-12
1.03493e-11
1.07747e-11
1.1214e-11
1.16676e-11
1.21359e-11
1.26192e-11
1.31181e-11
1.36328e-11
1.41638e-11
1.47117e-11
1.52767e-11
1.58595e-11
1.64603e-11
1.70799e-11
1.77186e-11
1.83769e-11
1.90554e-11
1.97546e-11
2.04751e-11
2.12173e-11
2.19821e-11
2.27698e-11
2.35811e-11
2.44166e-11
2.5277e-11
2.61629e-11
2.7075e-11
2.8014e-11
2.89805e-11
2.99754e-11
3.09992e-11
3.20529e-11
3.31371e-11
3.42527e-11
3.54005e-11
3.65812e-11
3.77958e-11
3.90452e-11
4.03301e-11
4.16516e-11
4.30105e-11
4.44078e-11
4.58445e-11
4.73217e-11
4.88402e-11
5.04012e-11
5.20057e-11
5.36549e-11
5.53498e-11
5.70917e-11
5.88816e-11
6.07207e-11
6.26104e-11
6.45519e-11
6.65464e-11
6.85952e-11
7.06997e-11
7.28613e-11
7.50813e-11
7.73612e-11
7.97024e-11
8.21065e-11
8.4575e-11
8.71093e-11
8.97111e-11
9.23821e-11
9.51239e-11
9.79381e-11
1.00826e-10
1.03791e-10
1.06833e-10
1.09955e-10
1.13158e-10
1.16444e-10
1.19816e-10
1.23275e-10
1.26824e-10
1.30464e-10
1.34197e-10
1.38026e-10
1.41953e-10
1.4598e-10
1.50109e-10
1.54343e-10
1.58684e-10
1.63134e-10
1.67696e-10
1.72373e-10
1.77166e-10
1.82079e-10
1.87114e-10
1.92274e-10
1.97561e-10
2.02979e-10
2.0853e-10
2.14217e-10
2.20043e-10
2.2601e-10
2.32123e-10
2.38383e-10
2.44795e-10
2.51361e-10
2.58085e-10
2.64969e-10
2.72018e-10
2.79234e-10
2.86621e-10
2.94183e-10
3.01923e-10
3.09844e-10
3.17951e-10
3.26247e-10
3.34735e-10
3.4342e-10
3.52306e-10
3.61396e-10
3.70695e-10
3.80206e-10
3.89934e-10
3.99882e-10
4.10056e-10
4.20459e-10
4.31095e-10
4.41969e-10
4.53086e-10
4.6445e-10
4.76066e-10
4.87937e-10
5.00069e-10
5.12467e-10
5.25135e-10
5.38079e-10
5.51302e-10
5.64811e-10
5.78609e-10
5.92703e-10
6.07096e-10
6.21796e-10
6.36805e-10
6.52131e-10
6.67778e-10
6.83751e-10
7.00056e-10
7.16699e-10
7.33685e-10
7.51019e-10
7.68708e-10
7.86756e-10
8.0517e-10
8.23955e-10
8.43117e-10
8.62663e-10
8.82597e-10
9.02926e-10
9.23655e-10
9.44792e-10
9.66341e-10
9.88309e-10
1.0107e-09
1.03353e-09
1.05679e-09
1.08049e-09
1.10465e-09
1.12926e-09
1.15433e-09
1.17987e-09
1.20589e-09
1.23238e-09
1.25937e-09
1.28685e-09
1.31482e-09
1.34331e-09
1.37231e-09
1.40183e-09
1.43187e-09
1.46245e-09
1.49356e-09
1.52522e-09
1.55743e-09
1.5902e-09
1.62353e-09
1.65743e-09
1.69191e-09
1.72698e-09
1.76263e-09
1.79888e-09
1.83573e-09
1.87319e-09
1.91126e-09
1.94995e-09
1.98927e-09
2.02923e-09
2.06982e-09
2.11105e-09
2.15294e-09
2.19548e-09
2.23869e-09
2.28256e-09
2.32711e-09
2.37233e-09
2.41824e-09
2.46484e-09
2.51214e-09
2.56013e-09
2.60883e-09
2.65824e-09
2.70837e-09
2.75922e-09
2.81079e-09
2.86309e-09
2.91613e-09
2.9699e-09
3.02442e-09
3.07969e-09
3.1357e-09
3.19247e-09
3.25e-09
3.30829e-09
3.36735e-09
3.42718e-09
3.48778e-09
3.54915e-09
3.6113e-09
3.67423e-09
3.73794e-09
3.80244e-09
3.86773e-09
3.9338e-09
4.00067e-09
4.06833e-09
4.13678e-09
4.20602e-09
4.27607e-09
4.3469e-09
4.41854e-09
4.49097e-09
4.5642e-09
4.63822e-09
4.71304e-09
4.78866e-09
4.86507e-09
4.94227e-09
5.02027e-09
5.09905e-09
5.17863e-09
5.25899e-09
5.34013e-09
5.42206e-09
5.50476e-09
5.58823e-09
5.67248e-09
5.75749e-09
5.84327e-09
5.9298e-09
6.01709e-09
6.10513e-09
6.1939e-09
6.28342e-09
6.37366e-09
6.46463e-09
6.55631e-09
6.64871e-09
6.74181e-09
6.8356e-09
6.93007e-09
7.02523e-09
7.12105e-09
7.21753e-09
7.31466e-09
7.41242e-09
7.51081e-09
7.60982e-09
7.70943e-09
7.80962e-09
7.9104e-09
8.01173e-09
8.11362e-09
8.21603e-09
8.31897e-09
8.4224e-09
8.52632e-09
8.63069e-09
8.73551e-09
8.84076e-09
8.9464e-09
9.05242e-09
9.15879e-09
9.26549e-09
9.37248e-09
9.47974e-09
9.58724e-09
9.69493e-09
9.8028e-09
9.91079e-09
1.00189e-08
1.0127e-08
1.02351e-08
1.03431e-08
1.0451e-08
1.05588e-08
1.06662e-08
1.07734e-08
1.08802e-08
1.09864e-08
1.10921e-08
1.11971e-08
1.13013e-08
1.14046e-08
1.15068e-08
1.16078e-08
1.17074e-08
1.18055e-08
1.19018e-08
1.19961e-08
1.20883e-08
1.21779e-08
1.22648e-08
1.23487e-08
1.2429e-08
1.25056e-08
1.2578e-08
1.26457e-08
1.27082e-08
1.2765e-08
1.28155e-08
1.28591e-08
1.28952e-08
1.29231e-08
1.29422e-08
1.2952e-08
)
;
    }
    Wall
    {
        type            calculated;
        value           nonuniform List<scalar> 
400
(
6.80123e-15
2.16621e-14
3.80113e-14
5.578e-14
7.49798e-14
9.5677e-14
1.17937e-13
1.41827e-13
1.67423e-13
1.94808e-13
2.24071e-13
2.55303e-13
2.88601e-13
3.24062e-13
3.61788e-13
4.01881e-13
4.44448e-13
4.89595e-13
5.37429e-13
5.88062e-13
6.41605e-13
6.98172e-13
7.57878e-13
8.20841e-13
8.87182e-13
9.57021e-13
1.03048e-12
1.1077e-12
1.18879e-12
1.2739e-12
1.36315e-12
1.45669e-12
1.55466e-12
1.6572e-12
1.76446e-12
1.87658e-12
1.99373e-12
2.11607e-12
2.24374e-12
2.37692e-12
2.51578e-12
2.66048e-12
2.81121e-12
2.96815e-12
3.13148e-12
3.30139e-12
3.47808e-12
3.66173e-12
3.85257e-12
4.05079e-12
4.25661e-12
4.47025e-12
4.69193e-12
4.92188e-12
5.16033e-12
5.40754e-12
5.66373e-12
5.92918e-12
6.20413e-12
6.48886e-12
6.78363e-12
7.08872e-12
7.40443e-12
7.73105e-12
8.06887e-12
8.41821e-12
8.77938e-12
9.15271e-12
9.53853e-12
9.93719e-12
1.0349e-11
1.07744e-11
1.12137e-11
1.16673e-11
1.21355e-11
1.26189e-11
1.31177e-11
1.36324e-11
1.41635e-11
1.47113e-11
1.52763e-11
1.5859e-11
1.64599e-11
1.70794e-11
1.77181e-11
1.83764e-11
1.90549e-11
1.97541e-11
2.04745e-11
2.12168e-11
2.19815e-11
2.27691e-11
2.35804e-11
2.44159e-11
2.52763e-11
2.61622e-11
2.70743e-11
2.80132e-11
2.89797e-11
2.99746e-11
3.09984e-11
3.20521e-11
3.31363e-11
3.42518e-11
3.53996e-11
3.65803e-11
3.77949e-11
3.90442e-11
4.03291e-11
4.16505e-11
4.30094e-11
4.44067e-11
4.58434e-11
4.73204e-11
4.88389e-11
5.03999e-11
5.20044e-11
5.36535e-11
5.53484e-11
5.70902e-11
5.88801e-11
6.07192e-11
6.26089e-11
6.45503e-11
6.65447e-11
6.85935e-11
7.06979e-11
7.28595e-11
7.50794e-11
7.73593e-11
7.97005e-11
8.21045e-11
8.45729e-11
8.71071e-11
8.97089e-11
9.23798e-11
9.51215e-11
9.79357e-11
1.00824e-10
1.03788e-10
1.0683e-10
1.09952e-10
1.13155e-10
1.16442e-10
1.19813e-10
1.23272e-10
1.26821e-10
1.3046e-10
1.34194e-10
1.38023e-10
1.41949e-10
1.45976e-10
1.50105e-10
1.54339e-10
1.5868e-10
1.6313e-10
1.67692e-10
1.72369e-10
1.77162e-10
1.82075e-10
1.8711e-10
1.92269e-10
1.97557e-10
2.02974e-10
2.08525e-10
2.14212e-10
2.20037e-10
2.26005e-10
2.32117e-10
2.38378e-10
2.44789e-10
2.51355e-10
2.58079e-10
2.64963e-10
2.72012e-10
2.79228e-10
2.86615e-10
2.94176e-10
3.01916e-10
3.09837e-10
3.17943e-10
3.26239e-10
3.34727e-10
3.43412e-10
3.52298e-10
3.61388e-10
3.70686e-10
3.80197e-10
3.89925e-10
3.99873e-10
4.10046e-10
4.20449e-10
4.31085e-10
4.41959e-10
4.53076e-10
4.64439e-10
4.76055e-10
4.87926e-10
5.00058e-10
5.12455e-10
5.25123e-10
5.38066e-10
5.5129e-10
5.64798e-10
5.78596e-10
5.92689e-10
6.07083e-10
6.21781e-10
6.36791e-10
6.52116e-10
6.67763e-10
6.83736e-10
7.0004e-10
7.16683e-10
7.33668e-10
7.51002e-10
7.6869e-10
7.86738e-10
8.05152e-10
8.23937e-10
8.43099e-10
8.62644e-10
8.82577e-10
9.02906e-10
9.23635e-10
9.44771e-10
9.6632e-10
9.88287e-10
1.01068e-09
1.0335e-09
1.05676e-09
1.08047e-09
1.10462e-09
1.12923e-09
1.1543e-09
1.17984e-09
1.20586e-09
1.23236e-09
1.25934e-09
1.28682e-09
1.3148e-09
1.34328e-09
1.37228e-09
1.4018e-09
1.43184e-09
1.46241e-09
1.49353e-09
1.52519e-09
1.5574e-09
1.59016e-09
1.6235e-09
1.6574e-09
1.69188e-09
1.72694e-09
1.76259e-09
1.79884e-09
1.83569e-09
1.87315e-09
1.91122e-09
1.94991e-09
1.98923e-09
2.02918e-09
2.06978e-09
2.11101e-09
2.1529e-09
2.19544e-09
2.23864e-09
2.28251e-09
2.32706e-09
2.37228e-09
2.41819e-09
2.46479e-09
2.51208e-09
2.56008e-09
2.60878e-09
2.65819e-09
2.70831e-09
2.75916e-09
2.81073e-09
2.86303e-09
2.91607e-09
2.96984e-09
3.02436e-09
3.07962e-09
3.13564e-09
3.19241e-09
3.24994e-09
3.30823e-09
3.36728e-09
3.42711e-09
3.4877e-09
3.54908e-09
3.61122e-09
3.67415e-09
3.73787e-09
3.80236e-09
3.86765e-09
3.93372e-09
4.00059e-09
4.06824e-09
4.13669e-09
4.20594e-09
4.27598e-09
4.34682e-09
4.41845e-09
4.49088e-09
4.5641e-09
4.63813e-09
4.71295e-09
4.78856e-09
4.86497e-09
4.94217e-09
5.02017e-09
5.09895e-09
5.17853e-09
5.25889e-09
5.34003e-09
5.42195e-09
5.50465e-09
5.58813e-09
5.67237e-09
5.75738e-09
5.84316e-09
5.92969e-09
6.01698e-09
6.10501e-09
6.19379e-09
6.2833e-09
6.37354e-09
6.46451e-09
6.55619e-09
6.64859e-09
6.74168e-09
6.83547e-09
6.92995e-09
7.0251e-09
7.12092e-09
7.2174e-09
7.31453e-09
7.41229e-09
7.51068e-09
7.60968e-09
7.70929e-09
7.80949e-09
7.91026e-09
8.0116e-09
8.11348e-09
8.21589e-09
8.31883e-09
8.42226e-09
8.52617e-09
8.63054e-09
8.73536e-09
8.8406e-09
8.94625e-09
9.05226e-09
9.15863e-09
9.26533e-09
9.37232e-09
9.47958e-09
9.58707e-09
9.69477e-09
9.80263e-09
9.91062e-09
1.00187e-08
1.01268e-08
1.02349e-08
1.03429e-08
1.04509e-08
1.05586e-08
1.06661e-08
1.07732e-08
1.088e-08
1.09863e-08
1.10919e-08
1.11969e-08
1.13011e-08
1.14044e-08
1.15066e-08
1.16076e-08
1.17072e-08
1.18053e-08
1.19016e-08
1.1996e-08
1.20881e-08
1.21778e-08
1.22647e-08
1.23485e-08
1.24289e-08
1.25055e-08
1.25778e-08
1.26455e-08
1.2708e-08
1.27648e-08
1.28153e-08
1.28589e-08
1.2895e-08
1.2923e-08
1.29421e-08
1.29519e-08
)
;
    }
}


// ************************************************************************* //
