/*--------------------------------*- C++ -*----------------------------------*\
  =========                 |
  \\      /  F ield         | OpenFOAM: The Open Source CFD Toolbox
   \\    /   O peration     | Website:  https://openfoam.org
    \\  /    A nd           | Version:  dev
     \\/     M anipulation  |
\*---------------------------------------------------------------------------*/
FoamFile
{
    format      ascii;
    class       volScalarField;
    location    "0.58";
    object      N1;
}
// * * * * * * * * * * * * * * * * * * * * * * * * * * * * * * * * * * * * * //

dimensions      [0 0 0 0 0 0 0];

internalField   nonuniform List<scalar> 
8000
(
5.16391e-14
1.64513e-13
2.88731e-13
4.23772e-13
5.69727e-13
7.27105e-13
8.964e-13
1.07813e-12
1.27289e-12
1.4813e-12
1.70404e-12
1.94182e-12
2.19537e-12
2.46544e-12
2.75282e-12
3.0583e-12
3.38267e-12
3.72676e-12
4.09141e-12
4.47746e-12
4.88576e-12
5.3172e-12
5.77266e-12
6.25305e-12
6.7593e-12
7.29233e-12
7.85311e-12
8.44262e-12
9.06186e-12
9.71184e-12
1.03936e-11
1.11082e-11
1.18568e-11
1.26404e-11
1.34602e-11
1.43174e-11
1.5213e-11
1.61485e-11
1.71249e-11
1.81436e-11
1.92058e-11
2.0313e-11
2.14664e-11
2.26675e-11
2.39176e-11
2.52183e-11
2.6571e-11
2.79773e-11
2.94387e-11
3.09569e-11
3.25334e-11
3.417e-11
3.58684e-11
3.76304e-11
3.94577e-11
4.13523e-11
4.3316e-11
4.53508e-11
4.74587e-11
4.96417e-11
5.1902e-11
5.42416e-11
5.66629e-11
5.9168e-11
6.17593e-11
6.44391e-11
6.721e-11
7.00743e-11
7.30347e-11
7.60939e-11
7.92544e-11
8.2519e-11
8.58907e-11
8.93723e-11
9.29668e-11
9.66773e-11
1.00507e-10
1.04459e-10
1.08536e-10
1.12743e-10
1.17081e-10
1.21556e-10
1.26171e-10
1.30929e-10
1.35834e-10
1.40891e-10
1.46102e-10
1.51473e-10
1.57008e-10
1.6271e-10
1.68585e-10
1.74636e-10
1.8087e-10
1.87289e-10
1.939e-10
2.00707e-10
2.07716e-10
2.14931e-10
2.22358e-10
2.30004e-10
2.37872e-10
2.4597e-10
2.54302e-10
2.62876e-10
2.71698e-10
2.80773e-10
2.90109e-10
2.99711e-10
3.09588e-10
3.19745e-10
3.30191e-10
3.40932e-10
3.51977e-10
3.63332e-10
3.75005e-10
3.87005e-10
3.9934e-10
4.12019e-10
4.25049e-10
4.3844e-10
4.52201e-10
4.66341e-10
4.8087e-10
4.95796e-10
5.11131e-10
5.26884e-10
5.43064e-10
5.59684e-10
5.76754e-10
5.94284e-10
6.12286e-10
6.30771e-10
6.49751e-10
6.69238e-10
6.89244e-10
7.09782e-10
7.30865e-10
7.52504e-10
7.74715e-10
7.9751e-10
8.20902e-10
8.44907e-10
8.69538e-10
8.94811e-10
9.2074e-10
9.4734e-10
9.74627e-10
1.00262e-09
1.03133e-09
1.06077e-09
1.09097e-09
1.12194e-09
1.15369e-09
1.18625e-09
1.21963e-09
1.25386e-09
1.28894e-09
1.3249e-09
1.36177e-09
1.39955e-09
1.43827e-09
1.47795e-09
1.51861e-09
1.56028e-09
1.60297e-09
1.6467e-09
1.69151e-09
1.7374e-09
1.78441e-09
1.83256e-09
1.88187e-09
1.93236e-09
1.98407e-09
2.03702e-09
2.09123e-09
2.14672e-09
2.20354e-09
2.26169e-09
2.32121e-09
2.38213e-09
2.44448e-09
2.50828e-09
2.57356e-09
2.64036e-09
2.7087e-09
2.77861e-09
2.85012e-09
2.92327e-09
2.99808e-09
3.07459e-09
3.15284e-09
3.23284e-09
3.31465e-09
3.39828e-09
3.48378e-09
3.57117e-09
3.66051e-09
3.75181e-09
3.84512e-09
3.94047e-09
4.0379e-09
4.13744e-09
4.23914e-09
4.34303e-09
4.44916e-09
4.55755e-09
4.66825e-09
4.7813e-09
4.89674e-09
5.0146e-09
5.13494e-09
5.25779e-09
5.38319e-09
5.51119e-09
5.64183e-09
5.77514e-09
5.91118e-09
6.04999e-09
6.19161e-09
6.33609e-09
6.48346e-09
6.63378e-09
6.7871e-09
6.94344e-09
7.10287e-09
7.26543e-09
7.43117e-09
7.60012e-09
7.77234e-09
7.94788e-09
8.12678e-09
8.30909e-09
8.49486e-09
8.68414e-09
8.87697e-09
9.07341e-09
9.27349e-09
9.47728e-09
9.68482e-09
9.89615e-09
1.01113e-08
1.03304e-08
1.05534e-08
1.07805e-08
1.10115e-08
1.12467e-08
1.1486e-08
1.17295e-08
1.19772e-08
1.22292e-08
1.24856e-08
1.27463e-08
1.30115e-08
1.32812e-08
1.35554e-08
1.38342e-08
1.41176e-08
1.44057e-08
1.46985e-08
1.49961e-08
1.52985e-08
1.56058e-08
1.59179e-08
1.62351e-08
1.65572e-08
1.68844e-08
1.72167e-08
1.75541e-08
1.78967e-08
1.82446e-08
1.85976e-08
1.8956e-08
1.93198e-08
1.96889e-08
2.00635e-08
2.04435e-08
2.0829e-08
2.12201e-08
2.16167e-08
2.2019e-08
2.24269e-08
2.28404e-08
2.32597e-08
2.36848e-08
2.41156e-08
2.45522e-08
2.49947e-08
2.5443e-08
2.58972e-08
2.63573e-08
2.68233e-08
2.72954e-08
2.77734e-08
2.82574e-08
2.87474e-08
2.92434e-08
2.97455e-08
3.02537e-08
3.0768e-08
3.12883e-08
3.18148e-08
3.23473e-08
3.2886e-08
3.34308e-08
3.39818e-08
3.45388e-08
3.5102e-08
3.56713e-08
3.62468e-08
3.68283e-08
3.7416e-08
3.80098e-08
3.86096e-08
3.92155e-08
3.98275e-08
4.04456e-08
4.10697e-08
4.16997e-08
4.23358e-08
4.29778e-08
4.36257e-08
4.42796e-08
4.49392e-08
4.56048e-08
4.62761e-08
4.69532e-08
4.76359e-08
4.83244e-08
4.90184e-08
4.97181e-08
5.04232e-08
5.11338e-08
5.18498e-08
5.25711e-08
5.32977e-08
5.40296e-08
5.47665e-08
5.55085e-08
5.62555e-08
5.70074e-08
5.77641e-08
5.85256e-08
5.92917e-08
6.00623e-08
6.08373e-08
6.16167e-08
6.24003e-08
6.31879e-08
6.39796e-08
6.47751e-08
6.55743e-08
6.6377e-08
6.71832e-08
6.79926e-08
6.88051e-08
6.96205e-08
7.04386e-08
7.12591e-08
7.2082e-08
7.2907e-08
7.37337e-08
7.4562e-08
7.53915e-08
7.62221e-08
7.70532e-08
7.78847e-08
7.87161e-08
7.9547e-08
8.0377e-08
8.12056e-08
8.20322e-08
8.28564e-08
8.36775e-08
8.44948e-08
8.53076e-08
8.61151e-08
8.69165e-08
8.77107e-08
8.84968e-08
8.92735e-08
9.00397e-08
9.07939e-08
9.15347e-08
9.22603e-08
9.29689e-08
9.36584e-08
9.43268e-08
9.49714e-08
9.55897e-08
9.61787e-08
9.67352e-08
9.72557e-08
9.77364e-08
9.81731e-08
9.85616e-08
9.8897e-08
9.91746e-08
9.93894e-08
9.95366e-08
9.96117e-08
5.05864e-14
1.62168e-13
2.85338e-13
4.19918e-13
5.65897e-13
7.23612e-13
8.93499e-13
1.07606e-12
1.27187e-12
1.48156e-12
1.70581e-12
1.94535e-12
2.20092e-12
2.4733e-12
2.76328e-12
3.07166e-12
3.39929e-12
3.74699e-12
4.11562e-12
4.50606e-12
4.91918e-12
5.35589e-12
5.8171e-12
6.30375e-12
6.81677e-12
7.35716e-12
7.92588e-12
8.52396e-12
9.15241e-12
9.81231e-12
1.05047e-11
1.12307e-11
1.19915e-11
1.27881e-11
1.36218e-11
1.44937e-11
1.54052e-11
1.63573e-11
1.73515e-11
1.83891e-11
1.94713e-11
2.05995e-11
2.17753e-11
2.3e-11
2.4275e-11
2.56019e-11
2.69823e-11
2.84177e-11
2.99098e-11
3.14601e-11
3.30705e-11
3.47426e-11
3.64783e-11
3.82793e-11
4.01475e-11
4.20849e-11
4.40934e-11
4.6175e-11
4.83318e-11
5.05659e-11
5.28795e-11
5.52748e-11
5.77541e-11
6.03197e-11
6.2974e-11
6.57195e-11
6.85587e-11
7.14942e-11
7.45285e-11
7.76645e-11
8.0905e-11
8.42526e-11
8.77105e-11
9.12816e-11
9.4969e-11
9.87758e-11
1.02705e-10
1.06761e-10
1.10945e-10
1.15263e-10
1.19717e-10
1.24312e-10
1.2905e-10
1.33936e-10
1.38973e-10
1.44166e-10
1.4952e-10
1.55037e-10
1.60723e-10
1.66581e-10
1.72618e-10
1.78836e-10
1.85242e-10
1.9184e-10
1.98634e-10
2.05631e-10
2.12836e-10
2.20253e-10
2.27889e-10
2.3575e-10
2.4384e-10
2.52167e-10
2.60735e-10
2.69553e-10
2.78625e-10
2.87958e-10
2.9756e-10
3.07437e-10
3.17597e-10
3.28046e-10
3.38791e-10
3.49841e-10
3.61204e-10
3.72886e-10
3.84897e-10
3.97244e-10
4.09936e-10
4.22982e-10
4.36391e-10
4.50171e-10
4.64332e-10
4.78884e-10
4.93836e-10
5.09198e-10
5.2498e-10
5.41193e-10
5.57848e-10
5.74954e-10
5.92524e-10
6.10568e-10
6.29098e-10
6.48127e-10
6.67665e-10
6.87726e-10
7.08321e-10
7.29464e-10
7.51169e-10
7.73447e-10
7.96313e-10
8.19782e-10
8.43866e-10
8.68581e-10
8.93941e-10
9.19963e-10
9.4666e-10
9.74049e-10
1.00215e-09
1.03097e-09
1.06053e-09
1.09085e-09
1.12194e-09
1.15383e-09
1.18653e-09
1.22006e-09
1.25444e-09
1.28968e-09
1.32581e-09
1.36285e-09
1.40081e-09
1.43972e-09
1.4796e-09
1.52046e-09
1.56234e-09
1.60525e-09
1.64922e-09
1.69426e-09
1.7404e-09
1.78767e-09
1.83609e-09
1.88568e-09
1.93647e-09
1.98848e-09
2.04174e-09
2.09627e-09
2.15211e-09
2.20927e-09
2.26779e-09
2.32769e-09
2.389e-09
2.45175e-09
2.51598e-09
2.58169e-09
2.64894e-09
2.71775e-09
2.78814e-09
2.86016e-09
2.93383e-09
3.00918e-09
3.08625e-09
3.16507e-09
3.24567e-09
3.32809e-09
3.41236e-09
3.49852e-09
3.5866e-09
3.67663e-09
3.76866e-09
3.86272e-09
3.95885e-09
4.05708e-09
4.15746e-09
4.26002e-09
4.36479e-09
4.47183e-09
4.58117e-09
4.69284e-09
4.80689e-09
4.92337e-09
5.04231e-09
5.16375e-09
5.28773e-09
5.41431e-09
5.54352e-09
5.6754e-09
5.81e-09
5.94737e-09
6.08754e-09
6.23057e-09
6.37649e-09
6.52536e-09
6.67721e-09
6.83211e-09
6.99008e-09
7.15119e-09
7.31547e-09
7.48298e-09
7.65376e-09
7.82787e-09
8.00534e-09
8.18623e-09
8.37058e-09
8.55845e-09
8.74989e-09
8.94494e-09
9.14366e-09
9.34609e-09
9.55229e-09
9.7623e-09
9.97618e-09
1.0194e-08
1.04157e-08
1.06415e-08
1.08714e-08
1.11053e-08
1.13435e-08
1.15858e-08
1.18324e-08
1.20834e-08
1.23387e-08
1.25985e-08
1.28627e-08
1.31314e-08
1.34048e-08
1.36827e-08
1.39653e-08
1.42527e-08
1.45448e-08
1.48417e-08
1.51435e-08
1.54503e-08
1.5762e-08
1.60787e-08
1.64005e-08
1.67274e-08
1.70595e-08
1.73967e-08
1.77393e-08
1.80871e-08
1.84403e-08
1.87988e-08
1.91628e-08
1.95322e-08
1.99072e-08
2.02877e-08
2.06738e-08
2.10656e-08
2.1463e-08
2.18662e-08
2.22751e-08
2.26898e-08
2.31103e-08
2.35367e-08
2.39689e-08
2.44071e-08
2.48513e-08
2.53015e-08
2.57576e-08
2.62198e-08
2.66881e-08
2.71625e-08
2.7643e-08
2.81297e-08
2.86226e-08
2.91216e-08
2.96268e-08
3.01383e-08
3.0656e-08
3.118e-08
3.17103e-08
3.22468e-08
3.27897e-08
3.33388e-08
3.38943e-08
3.44561e-08
3.50242e-08
3.55986e-08
3.61794e-08
3.67665e-08
3.73599e-08
3.79596e-08
3.85656e-08
3.91779e-08
3.97966e-08
4.04214e-08
4.10526e-08
4.169e-08
4.23336e-08
4.29834e-08
4.36394e-08
4.43015e-08
4.49698e-08
4.56441e-08
4.63245e-08
4.70109e-08
4.77033e-08
4.84016e-08
4.91059e-08
4.9816e-08
5.05318e-08
5.12535e-08
5.19808e-08
5.27138e-08
5.34523e-08
5.41964e-08
5.49459e-08
5.57008e-08
5.6461e-08
5.72265e-08
5.7997e-08
5.87727e-08
5.95533e-08
6.03388e-08
6.11291e-08
6.19241e-08
6.27237e-08
6.35278e-08
6.43362e-08
6.51488e-08
6.59656e-08
6.67863e-08
6.76109e-08
6.84392e-08
6.9271e-08
7.01061e-08
7.09445e-08
7.17859e-08
7.263e-08
7.34768e-08
7.43259e-08
7.51772e-08
7.60304e-08
7.68852e-08
7.77414e-08
7.85985e-08
7.94564e-08
8.03146e-08
8.11727e-08
8.20304e-08
8.28872e-08
8.37426e-08
8.4596e-08
8.54469e-08
8.62947e-08
8.71386e-08
8.7978e-08
8.8812e-08
8.96397e-08
9.04602e-08
9.12723e-08
9.20749e-08
9.28667e-08
9.36463e-08
9.44121e-08
9.51624e-08
9.58953e-08
9.66088e-08
9.73006e-08
9.79681e-08
9.86087e-08
9.92192e-08
9.97965e-08
1.00337e-07
1.00836e-07
1.01291e-07
1.01696e-07
1.02046e-07
1.02336e-07
1.02562e-07
1.02717e-07
1.02797e-07
4.96394e-14
1.59253e-13
2.80138e-13
4.1265e-13
5.56982e-13
7.13415e-13
8.82328e-13
1.06419e-12
1.25954e-12
1.46901e-12
1.69326e-12
1.93302e-12
2.18904e-12
2.4621e-12
2.753e-12
3.06256e-12
3.39163e-12
3.74105e-12
4.1117e-12
4.50447e-12
4.92024e-12
5.35996e-12
5.82454e-12
6.31495e-12
6.83215e-12
7.37714e-12
7.95094e-12
8.55458e-12
9.18911e-12
9.85561e-12
1.05552e-11
1.1289e-11
1.20582e-11
1.28639e-11
1.37073e-11
1.45898e-11
1.55124e-11
1.64766e-11
1.74837e-11
1.8535e-11
1.96319e-11
2.07757e-11
2.19681e-11
2.32103e-11
2.4504e-11
2.58507e-11
2.7252e-11
2.87096e-11
3.0225e-11
3.17999e-11
3.34363e-11
3.51357e-11
3.69001e-11
3.87313e-11
4.06313e-11
4.2602e-11
4.46455e-11
4.67638e-11
4.8959e-11
5.12333e-11
5.3589e-11
5.60282e-11
5.85535e-11
6.1167e-11
6.38714e-11
6.66692e-11
6.95628e-11
7.2555e-11
7.56485e-11
7.88461e-11
8.21506e-11
8.55649e-11
8.90921e-11
9.27352e-11
9.64974e-11
1.00382e-10
1.04392e-10
1.08531e-10
1.12803e-10
1.17211e-10
1.21758e-10
1.2645e-10
1.31288e-10
1.36278e-10
1.41423e-10
1.46728e-10
1.52196e-10
1.57833e-10
1.63643e-10
1.69629e-10
1.75798e-10
1.82153e-10
1.887e-10
1.95443e-10
2.02388e-10
2.09541e-10
2.16906e-10
2.2449e-10
2.32297e-10
2.40334e-10
2.48607e-10
2.57122e-10
2.65885e-10
2.74903e-10
2.84181e-10
2.93728e-10
3.0355e-10
3.13653e-10
3.24046e-10
3.34735e-10
3.45728e-10
3.57034e-10
3.68659e-10
3.80612e-10
3.92901e-10
4.05536e-10
4.18523e-10
4.31874e-10
4.45595e-10
4.59698e-10
4.74191e-10
4.89084e-10
5.04387e-10
5.2011e-10
5.36264e-10
5.52859e-10
5.69907e-10
5.87418e-10
6.05403e-10
6.23875e-10
6.42844e-10
6.62324e-10
6.82327e-10
7.02864e-10
7.2395e-10
7.45597e-10
7.67819e-10
7.90629e-10
8.14041e-10
8.38071e-10
8.62732e-10
8.88039e-10
9.14007e-10
9.40653e-10
9.67991e-10
9.96038e-10
1.02481e-09
1.05433e-09
1.0846e-09
1.11565e-09
1.14749e-09
1.18015e-09
1.21364e-09
1.24798e-09
1.28319e-09
1.31928e-09
1.35629e-09
1.39422e-09
1.43311e-09
1.47296e-09
1.51381e-09
1.55567e-09
1.59856e-09
1.64252e-09
1.68755e-09
1.73369e-09
1.78096e-09
1.82938e-09
1.87898e-09
1.92978e-09
1.98181e-09
2.03509e-09
2.08965e-09
2.14552e-09
2.20272e-09
2.26128e-09
2.32123e-09
2.3826e-09
2.44542e-09
2.50971e-09
2.57551e-09
2.64284e-09
2.71174e-09
2.78224e-09
2.85437e-09
2.92816e-09
3.00364e-09
3.08085e-09
3.15982e-09
3.24058e-09
3.32317e-09
3.40763e-09
3.49398e-09
3.58227e-09
3.67253e-09
3.76479e-09
3.8591e-09
3.95549e-09
4.054e-09
4.15467e-09
4.25754e-09
4.36264e-09
4.47002e-09
4.57972e-09
4.69177e-09
4.80622e-09
4.92312e-09
5.04249e-09
5.16439e-09
5.28886e-09
5.41594e-09
5.54567e-09
5.67811e-09
5.81328e-09
5.95125e-09
6.09205e-09
6.23573e-09
6.38234e-09
6.53192e-09
6.68451e-09
6.84018e-09
6.99896e-09
7.1609e-09
7.32605e-09
7.49446e-09
7.66618e-09
7.84126e-09
8.01974e-09
8.20168e-09
8.38713e-09
8.57613e-09
8.76874e-09
8.96501e-09
9.16498e-09
9.36872e-09
9.57627e-09
9.78768e-09
1.0003e-08
1.02223e-08
1.04456e-08
1.0673e-08
1.09045e-08
1.11402e-08
1.13801e-08
1.16243e-08
1.18728e-08
1.21257e-08
1.2383e-08
1.26448e-08
1.29112e-08
1.31821e-08
1.34577e-08
1.3738e-08
1.40231e-08
1.43129e-08
1.46076e-08
1.49072e-08
1.52117e-08
1.55213e-08
1.58359e-08
1.61556e-08
1.64804e-08
1.68105e-08
1.71458e-08
1.74864e-08
1.78323e-08
1.81836e-08
1.85404e-08
1.89027e-08
1.92704e-08
1.96438e-08
2.00228e-08
2.04074e-08
2.07978e-08
2.11939e-08
2.15958e-08
2.20035e-08
2.24171e-08
2.28366e-08
2.3262e-08
2.36934e-08
2.41309e-08
2.45744e-08
2.5024e-08
2.54797e-08
2.59415e-08
2.64096e-08
2.68838e-08
2.73643e-08
2.78511e-08
2.83442e-08
2.88435e-08
2.93493e-08
2.98613e-08
3.03798e-08
3.09047e-08
3.1436e-08
3.19737e-08
3.25179e-08
3.30685e-08
3.36256e-08
3.41892e-08
3.47593e-08
3.53358e-08
3.59189e-08
3.65085e-08
3.71046e-08
3.77071e-08
3.83162e-08
3.89318e-08
3.95538e-08
4.01824e-08
4.08173e-08
4.14588e-08
4.21067e-08
4.2761e-08
4.34217e-08
4.40887e-08
4.47622e-08
4.54419e-08
4.6128e-08
4.68203e-08
4.75188e-08
4.82235e-08
4.89344e-08
4.96514e-08
5.03745e-08
5.11036e-08
5.18386e-08
5.25796e-08
5.33264e-08
5.40791e-08
5.48375e-08
5.56015e-08
5.63712e-08
5.71464e-08
5.79271e-08
5.87132e-08
5.95046e-08
6.03012e-08
6.11029e-08
6.19097e-08
6.27214e-08
6.35379e-08
6.43592e-08
6.51851e-08
6.60155e-08
6.68502e-08
6.76892e-08
6.85324e-08
6.93794e-08
7.02303e-08
7.10849e-08
7.19429e-08
7.28042e-08
7.36687e-08
7.45361e-08
7.54061e-08
7.62787e-08
7.71535e-08
7.80302e-08
7.89087e-08
7.97886e-08
8.06696e-08
8.15514e-08
8.24335e-08
8.33157e-08
8.41974e-08
8.50783e-08
8.59578e-08
8.68355e-08
8.77106e-08
8.85825e-08
8.94507e-08
9.03142e-08
9.11724e-08
9.20242e-08
9.28687e-08
9.37048e-08
9.45313e-08
9.53469e-08
9.61501e-08
9.69394e-08
9.7713e-08
9.8469e-08
9.92054e-08
9.99197e-08
1.00609e-07
1.01272e-07
1.01904e-07
1.02502e-07
1.03063e-07
1.03582e-07
1.04055e-07
1.04477e-07
1.04844e-07
1.05149e-07
1.05387e-07
1.05552e-07
1.05637e-07
4.86976e-14
1.56198e-13
2.74571e-13
4.04428e-13
5.46211e-13
7.00297e-13
8.67098e-13
1.04709e-12
1.24081e-12
1.44887e-12
1.67194e-12
1.91074e-12
2.166e-12
2.43851e-12
2.72907e-12
3.0385e-12
3.36765e-12
3.71738e-12
4.08857e-12
4.48211e-12
4.89892e-12
5.33993e-12
5.80609e-12
6.29837e-12
6.81776e-12
7.36528e-12
7.94194e-12
8.54882e-12
9.18699e-12
9.85755e-12
1.05616e-11
1.13004e-11
1.2075e-11
1.28867e-11
1.37366e-11
1.46261e-11
1.55565e-11
1.6529e-11
1.7545e-11
1.8606e-11
1.97132e-11
2.08682e-11
2.20724e-11
2.33274e-11
2.46347e-11
2.59959e-11
2.74125e-11
2.88864e-11
3.04191e-11
3.20125e-11
3.36682e-11
3.53882e-11
3.71744e-11
3.90285e-11
4.09526e-11
4.29488e-11
4.5019e-11
4.71654e-11
4.93901e-11
5.16954e-11
5.40836e-11
5.65569e-11
5.91179e-11
6.17688e-11
6.45122e-11
6.73508e-11
7.02871e-11
7.33238e-11
7.64638e-11
7.97098e-11
8.30648e-11
8.65317e-11
9.01137e-11
9.38138e-11
9.76354e-11
1.01582e-10
1.05656e-10
1.09862e-10
1.14203e-10
1.18682e-10
1.23305e-10
1.28073e-10
1.32992e-10
1.38065e-10
1.43297e-10
1.48691e-10
1.54252e-10
1.59985e-10
1.65893e-10
1.71983e-10
1.78258e-10
1.84723e-10
1.91383e-10
1.98245e-10
2.05312e-10
2.1259e-10
2.20085e-10
2.27803e-10
2.35749e-10
2.43929e-10
2.5235e-10
2.61018e-10
2.69938e-10
2.79118e-10
2.88565e-10
2.98284e-10
3.08284e-10
3.18572e-10
3.29154e-10
3.40039e-10
3.51234e-10
3.62747e-10
3.74586e-10
3.8676e-10
3.99277e-10
4.12145e-10
4.25374e-10
4.38973e-10
4.5295e-10
4.67316e-10
4.8208e-10
4.97252e-10
5.12842e-10
5.28861e-10
5.45318e-10
5.62226e-10
5.79596e-10
5.97437e-10
6.15763e-10
6.34585e-10
6.53914e-10
6.73764e-10
6.94147e-10
7.15076e-10
7.36564e-10
7.58624e-10
7.81271e-10
8.04518e-10
8.28379e-10
8.52869e-10
8.78003e-10
9.03797e-10
9.30265e-10
9.57424e-10
9.85289e-10
1.01388e-09
1.04321e-09
1.07329e-09
1.10415e-09
1.1358e-09
1.16827e-09
1.20156e-09
1.2357e-09
1.27071e-09
1.3066e-09
1.3434e-09
1.38113e-09
1.4198e-09
1.45944e-09
1.50008e-09
1.54172e-09
1.5844e-09
1.62814e-09
1.67295e-09
1.71887e-09
1.76592e-09
1.81411e-09
1.86349e-09
1.91406e-09
1.96587e-09
2.01892e-09
2.07325e-09
2.12889e-09
2.18587e-09
2.2442e-09
2.30392e-09
2.36506e-09
2.42765e-09
2.49171e-09
2.55728e-09
2.62439e-09
2.69306e-09
2.76333e-09
2.83524e-09
2.9088e-09
2.98406e-09
3.06105e-09
3.1398e-09
3.22035e-09
3.30273e-09
3.38698e-09
3.47313e-09
3.56121e-09
3.65127e-09
3.74334e-09
3.83746e-09
3.93367e-09
4.032e-09
4.1325e-09
4.2352e-09
4.34014e-09
4.44737e-09
4.55692e-09
4.66883e-09
4.78315e-09
4.89993e-09
5.01919e-09
5.14099e-09
5.26536e-09
5.39236e-09
5.52202e-09
5.65439e-09
5.78953e-09
5.92746e-09
6.06824e-09
6.21191e-09
6.35853e-09
6.50813e-09
6.66077e-09
6.81649e-09
6.97535e-09
7.13738e-09
7.30265e-09
7.47119e-09
7.64306e-09
7.81831e-09
7.997e-09
8.17916e-09
8.36485e-09
8.55412e-09
8.74703e-09
8.94362e-09
9.14394e-09
9.34806e-09
9.55602e-09
9.76787e-09
9.98367e-09
1.02035e-08
1.04273e-08
1.06553e-08
1.08874e-08
1.11237e-08
1.13643e-08
1.16092e-08
1.18585e-08
1.21122e-08
1.23704e-08
1.26331e-08
1.29004e-08
1.31724e-08
1.3449e-08
1.37304e-08
1.40166e-08
1.43076e-08
1.46036e-08
1.49045e-08
1.52104e-08
1.55214e-08
1.58374e-08
1.61587e-08
1.64852e-08
1.68169e-08
1.71539e-08
1.74963e-08
1.78442e-08
1.81975e-08
1.85563e-08
1.89206e-08
1.92906e-08
1.96663e-08
2.00476e-08
2.04347e-08
2.08275e-08
2.12262e-08
2.16308e-08
2.20413e-08
2.24578e-08
2.28803e-08
2.33088e-08
2.37434e-08
2.41841e-08
2.4631e-08
2.5084e-08
2.55433e-08
2.60089e-08
2.64808e-08
2.69589e-08
2.74435e-08
2.79344e-08
2.84317e-08
2.89355e-08
2.94458e-08
2.99625e-08
3.04857e-08
3.10155e-08
3.15518e-08
3.20947e-08
3.26442e-08
3.32003e-08
3.3763e-08
3.43323e-08
3.49083e-08
3.54909e-08
3.60802e-08
3.66761e-08
3.72787e-08
3.78879e-08
3.85038e-08
3.91263e-08
3.97555e-08
4.03913e-08
4.10338e-08
4.16829e-08
4.23386e-08
4.30009e-08
4.36697e-08
4.43452e-08
4.50271e-08
4.57156e-08
4.64105e-08
4.71119e-08
4.78197e-08
4.85339e-08
4.92545e-08
4.99813e-08
5.07144e-08
5.14538e-08
5.21993e-08
5.29509e-08
5.37087e-08
5.44724e-08
5.52421e-08
5.60176e-08
5.6799e-08
5.75862e-08
5.83791e-08
5.91775e-08
5.99815e-08
6.07909e-08
6.16057e-08
6.24258e-08
6.3251e-08
6.40814e-08
6.49166e-08
6.57568e-08
6.66017e-08
6.74512e-08
6.83052e-08
6.91636e-08
7.00262e-08
7.0893e-08
7.17636e-08
7.2638e-08
7.3516e-08
7.43974e-08
7.52821e-08
7.61698e-08
7.70603e-08
7.79533e-08
7.88487e-08
7.97462e-08
8.06455e-08
8.15463e-08
8.24482e-08
8.3351e-08
8.42543e-08
8.51576e-08
8.60606e-08
8.69629e-08
8.78637e-08
8.87628e-08
8.96594e-08
9.05529e-08
9.14426e-08
9.23277e-08
9.32075e-08
9.40809e-08
9.4947e-08
9.58047e-08
9.66528e-08
9.749e-08
9.83148e-08
9.91256e-08
9.99206e-08
1.00698e-07
1.01456e-07
1.02191e-07
1.02902e-07
1.03585e-07
1.04237e-07
1.04856e-07
1.05436e-07
1.05975e-07
1.06466e-07
1.06907e-07
1.0729e-07
1.0761e-07
1.07861e-07
1.08036e-07
1.08127e-07
4.78083e-14
1.533e-13
2.69296e-13
3.96472e-13
5.35435e-13
6.86702e-13
8.5078e-13
1.0282e-12
1.21954e-12
1.42542e-12
1.64651e-12
1.88352e-12
2.13719e-12
2.40831e-12
2.69766e-12
3.00607e-12
3.33438e-12
3.68345e-12
4.05416e-12
4.44741e-12
4.86412e-12
5.30523e-12
5.77171e-12
6.26452e-12
6.78468e-12
7.3332e-12
7.91115e-12
8.51958e-12
9.1596e-12
9.83233e-12
1.05389e-11
1.12805e-11
1.20584e-11
1.28736e-11
1.37276e-11
1.46216e-11
1.55569e-11
1.65349e-11
1.75568e-11
1.86242e-11
1.97385e-11
2.09011e-11
2.21135e-11
2.33774e-11
2.46942e-11
2.60656e-11
2.74933e-11
2.89788e-11
3.05241e-11
3.21308e-11
3.38007e-11
3.55358e-11
3.73379e-11
3.9209e-11
4.1151e-11
4.31661e-11
4.52563e-11
4.74238e-11
4.96708e-11
5.19995e-11
5.44123e-11
5.69115e-11
5.94995e-11
6.21789e-11
6.49522e-11
6.78221e-11
7.07911e-11
7.38621e-11
7.70378e-11
8.03213e-11
8.37153e-11
8.7223e-11
9.08475e-11
9.4592e-11
9.84597e-11
1.02454e-10
1.06578e-10
1.10836e-10
1.15231e-10
1.19767e-10
1.24448e-10
1.29277e-10
1.34259e-10
1.39398e-10
1.44697e-10
1.50162e-10
1.55796e-10
1.61605e-10
1.67592e-10
1.73762e-10
1.80121e-10
1.86674e-10
1.93424e-10
2.00379e-10
2.07543e-10
2.14921e-10
2.22519e-10
2.30344e-10
2.384e-10
2.46694e-10
2.55233e-10
2.64022e-10
2.73068e-10
2.82378e-10
2.91958e-10
3.01816e-10
3.11958e-10
3.22393e-10
3.33127e-10
3.44168e-10
3.55524e-10
3.67204e-10
3.79214e-10
3.91565e-10
4.04263e-10
4.17319e-10
4.30742e-10
4.44539e-10
4.58722e-10
4.73299e-10
4.8828e-10
5.03676e-10
5.19497e-10
5.35753e-10
5.52455e-10
5.69615e-10
5.87243e-10
6.05351e-10
6.2395e-10
6.43054e-10
6.62673e-10
6.82822e-10
7.03511e-10
7.24755e-10
7.46567e-10
7.68961e-10
7.9195e-10
8.15549e-10
8.39773e-10
8.64635e-10
8.90152e-10
9.16338e-10
9.4321e-10
9.70784e-10
9.99075e-10
1.0281e-09
1.05788e-09
1.08843e-09
1.11976e-09
1.1519e-09
1.18486e-09
1.21867e-09
1.25334e-09
1.28888e-09
1.32533e-09
1.3627e-09
1.40101e-09
1.44029e-09
1.48055e-09
1.52181e-09
1.56411e-09
1.60745e-09
1.65187e-09
1.69738e-09
1.74402e-09
1.7918e-09
1.84076e-09
1.89091e-09
1.94228e-09
1.99489e-09
2.04878e-09
2.10397e-09
2.16049e-09
2.21836e-09
2.27761e-09
2.33828e-09
2.40039e-09
2.46397e-09
2.52905e-09
2.59566e-09
2.66383e-09
2.7336e-09
2.80499e-09
2.87803e-09
2.95277e-09
3.02924e-09
3.10746e-09
3.18747e-09
3.26931e-09
3.35301e-09
3.43861e-09
3.52614e-09
3.61564e-09
3.70715e-09
3.8007e-09
3.89634e-09
3.9941e-09
4.09402e-09
4.19614e-09
4.30051e-09
4.40715e-09
4.51611e-09
4.62744e-09
4.74118e-09
4.85736e-09
4.97603e-09
5.09724e-09
5.22102e-09
5.34743e-09
5.4765e-09
5.60829e-09
5.74283e-09
5.88017e-09
6.02037e-09
6.16346e-09
6.3095e-09
6.45853e-09
6.6106e-09
6.76575e-09
6.92405e-09
7.08553e-09
7.25024e-09
7.41825e-09
7.58959e-09
7.76431e-09
7.94247e-09
8.12413e-09
8.30932e-09
8.4981e-09
8.69053e-09
8.88666e-09
9.08654e-09
9.29022e-09
9.49775e-09
9.7092e-09
9.92461e-09
1.0144e-08
1.03675e-08
1.05951e-08
1.08269e-08
1.1063e-08
1.13033e-08
1.1548e-08
1.1797e-08
1.20505e-08
1.23085e-08
1.25711e-08
1.28383e-08
1.31102e-08
1.33867e-08
1.36681e-08
1.39543e-08
1.42454e-08
1.45414e-08
1.48424e-08
1.51484e-08
1.54596e-08
1.57759e-08
1.60974e-08
1.64242e-08
1.67563e-08
1.70938e-08
1.74366e-08
1.7785e-08
1.81388e-08
1.84983e-08
1.88633e-08
1.9234e-08
1.96104e-08
1.99926e-08
2.03806e-08
2.07744e-08
2.11741e-08
2.15798e-08
2.19915e-08
2.24092e-08
2.2833e-08
2.32629e-08
2.36989e-08
2.41412e-08
2.45897e-08
2.50444e-08
2.55055e-08
2.59729e-08
2.64467e-08
2.6927e-08
2.74136e-08
2.79068e-08
2.84064e-08
2.89126e-08
2.94254e-08
2.99448e-08
3.04707e-08
3.10034e-08
3.15426e-08
3.20886e-08
3.26412e-08
3.32006e-08
3.37667e-08
3.43396e-08
3.49192e-08
3.55056e-08
3.60987e-08
3.66986e-08
3.73054e-08
3.79189e-08
3.85392e-08
3.91663e-08
3.98002e-08
4.04409e-08
4.10883e-08
4.17426e-08
4.24036e-08
4.30713e-08
4.37457e-08
4.44269e-08
4.51148e-08
4.58093e-08
4.65105e-08
4.72183e-08
4.79327e-08
4.86536e-08
4.9381e-08
5.0115e-08
5.08554e-08
5.16022e-08
5.23553e-08
5.31148e-08
5.38805e-08
5.46524e-08
5.54304e-08
5.62146e-08
5.70047e-08
5.78009e-08
5.86029e-08
5.94107e-08
6.02243e-08
6.10435e-08
6.18683e-08
6.26986e-08
6.35343e-08
6.43752e-08
6.52214e-08
6.60727e-08
6.69289e-08
6.779e-08
6.86559e-08
6.95263e-08
7.04013e-08
7.12806e-08
7.21641e-08
7.30516e-08
7.3943e-08
7.48381e-08
7.57368e-08
7.66387e-08
7.75438e-08
7.84518e-08
7.93625e-08
8.02756e-08
8.11908e-08
8.2108e-08
8.30267e-08
8.39467e-08
8.48677e-08
8.57892e-08
8.67108e-08
8.76322e-08
8.85528e-08
8.94722e-08
9.03898e-08
9.13051e-08
9.22173e-08
9.31258e-08
9.40297e-08
9.49283e-08
9.58207e-08
9.67057e-08
9.75824e-08
9.84496e-08
9.93058e-08
1.0015e-07
1.0098e-07
1.01794e-07
1.0259e-07
1.03367e-07
1.04122e-07
1.04851e-07
1.05554e-07
1.06225e-07
1.06862e-07
1.07461e-07
1.08018e-07
1.08527e-07
1.08985e-07
1.09384e-07
1.09719e-07
1.09983e-07
1.10167e-07
1.10265e-07
4.70211e-14
1.50725e-13
2.64611e-13
3.89344e-13
5.25611e-13
6.74047e-13
8.35267e-13
1.00989e-12
1.19853e-12
1.40187e-12
1.62059e-12
1.8554e-12
2.10706e-12
2.37632e-12
2.66399e-12
2.97087e-12
3.2978e-12
3.64564e-12
4.01527e-12
4.40758e-12
4.82351e-12
5.26398e-12
5.72996e-12
6.22245e-12
6.74245e-12
7.29101e-12
7.86917e-12
8.47803e-12
9.11869e-12
9.79228e-12
1.05e-11
1.1243e-11
1.20225e-11
1.28397e-11
1.36959e-11
1.45925e-11
1.55307e-11
1.6512e-11
1.75376e-11
1.86091e-11
1.97279e-11
2.08955e-11
2.21134e-11
2.33832e-11
2.47065e-11
2.60849e-11
2.75201e-11
2.90138e-11
3.05678e-11
3.21838e-11
3.38638e-11
3.56096e-11
3.74231e-11
3.93064e-11
4.12614e-11
4.32902e-11
4.5395e-11
4.75779e-11
4.98412e-11
5.21871e-11
5.4618e-11
5.71364e-11
5.97446e-11
6.24452e-11
6.52408e-11
6.8134e-11
7.11276e-11
7.42243e-11
7.7427e-11
8.07386e-11
8.41622e-11
8.77007e-11
9.13574e-11
9.51355e-11
9.90383e-11
1.03069e-10
1.07232e-10
1.11529e-10
1.15966e-10
1.20545e-10
1.25271e-10
1.30146e-10
1.35177e-10
1.40366e-10
1.45717e-10
1.51236e-10
1.56927e-10
1.62793e-10
1.68841e-10
1.75075e-10
1.81499e-10
1.88118e-10
1.94939e-10
2.01966e-10
2.09204e-10
2.1666e-10
2.24339e-10
2.32246e-10
2.40388e-10
2.48771e-10
2.57401e-10
2.66284e-10
2.75428e-10
2.84839e-10
2.94524e-10
3.04489e-10
3.14743e-10
3.25292e-10
3.36145e-10
3.47308e-10
3.5879e-10
3.706e-10
3.82745e-10
3.95233e-10
4.08075e-10
4.21278e-10
4.34851e-10
4.48805e-10
4.63148e-10
4.77891e-10
4.93043e-10
5.08615e-10
5.24617e-10
5.41059e-10
5.57954e-10
5.75311e-10
5.93142e-10
6.11459e-10
6.30275e-10
6.496e-10
6.69447e-10
6.8983e-10
7.10761e-10
7.32254e-10
7.54321e-10
7.76978e-10
8.00237e-10
8.24114e-10
8.48623e-10
8.73779e-10
8.99597e-10
9.26093e-10
9.53284e-10
9.81185e-10
1.00981e-09
1.03919e-09
1.06932e-09
1.10023e-09
1.13194e-09
1.16446e-09
1.19782e-09
1.23203e-09
1.26712e-09
1.30309e-09
1.33998e-09
1.3778e-09
1.41658e-09
1.45633e-09
1.49708e-09
1.53884e-09
1.58165e-09
1.62552e-09
1.67048e-09
1.71655e-09
1.76376e-09
1.81213e-09
1.86168e-09
1.91244e-09
1.96444e-09
2.01771e-09
2.07226e-09
2.12813e-09
2.18534e-09
2.24393e-09
2.30392e-09
2.36533e-09
2.42821e-09
2.49258e-09
2.55847e-09
2.62591e-09
2.69493e-09
2.76556e-09
2.83785e-09
2.91181e-09
2.98748e-09
3.0649e-09
3.1441e-09
3.22512e-09
3.30799e-09
3.39274e-09
3.47942e-09
3.56806e-09
3.65869e-09
3.75135e-09
3.84609e-09
3.94294e-09
4.04194e-09
4.14314e-09
4.24656e-09
4.35225e-09
4.46025e-09
4.57061e-09
4.68336e-09
4.79855e-09
4.91622e-09
5.03641e-09
5.15918e-09
5.28455e-09
5.41259e-09
5.54332e-09
5.67681e-09
5.81309e-09
5.95221e-09
6.09422e-09
6.23917e-09
6.38711e-09
6.53807e-09
6.69212e-09
6.8493e-09
7.00966e-09
7.17325e-09
7.34012e-09
7.51032e-09
7.68391e-09
7.86092e-09
8.04143e-09
8.22547e-09
8.4131e-09
8.60438e-09
8.79935e-09
8.99807e-09
9.2006e-09
9.40698e-09
9.61727e-09
9.83153e-09
1.00498e-08
1.02721e-08
1.04986e-08
1.07293e-08
1.09642e-08
1.12034e-08
1.14469e-08
1.16949e-08
1.19473e-08
1.22042e-08
1.24657e-08
1.27318e-08
1.30026e-08
1.32781e-08
1.35585e-08
1.38436e-08
1.41337e-08
1.44288e-08
1.47288e-08
1.50339e-08
1.53442e-08
1.56596e-08
1.59802e-08
1.63062e-08
1.66374e-08
1.69741e-08
1.73162e-08
1.76638e-08
1.80169e-08
1.83757e-08
1.87401e-08
1.91102e-08
1.9486e-08
1.98677e-08
2.02551e-08
2.06485e-08
2.10479e-08
2.14532e-08
2.18645e-08
2.2282e-08
2.27055e-08
2.31353e-08
2.35712e-08
2.40134e-08
2.44619e-08
2.49167e-08
2.53779e-08
2.58456e-08
2.63196e-08
2.68002e-08
2.72872e-08
2.77808e-08
2.8281e-08
2.87878e-08
2.93012e-08
2.98214e-08
3.03482e-08
3.08817e-08
3.1422e-08
3.1969e-08
3.25228e-08
3.30835e-08
3.3651e-08
3.42253e-08
3.48064e-08
3.53945e-08
3.59894e-08
3.65912e-08
3.71999e-08
3.78155e-08
3.8438e-08
3.90674e-08
3.97037e-08
4.03469e-08
4.0997e-08
4.1654e-08
4.23179e-08
4.29887e-08
4.36663e-08
4.43508e-08
4.50421e-08
4.57402e-08
4.64451e-08
4.71567e-08
4.78751e-08
4.86002e-08
4.93319e-08
5.00703e-08
5.08153e-08
5.15668e-08
5.23249e-08
5.30894e-08
5.38604e-08
5.46377e-08
5.54213e-08
5.62112e-08
5.70073e-08
5.78095e-08
5.86178e-08
5.94321e-08
6.02523e-08
6.10784e-08
6.19103e-08
6.27478e-08
6.35909e-08
6.44395e-08
6.52935e-08
6.61528e-08
6.70173e-08
6.78869e-08
6.87615e-08
6.96409e-08
7.0525e-08
7.14137e-08
7.23069e-08
7.32043e-08
7.41059e-08
7.50114e-08
7.59208e-08
7.68337e-08
7.77501e-08
7.86697e-08
7.95923e-08
8.05176e-08
8.14455e-08
8.23756e-08
8.33077e-08
8.42414e-08
8.51765e-08
8.61126e-08
8.70493e-08
8.79863e-08
8.89231e-08
8.98592e-08
9.07942e-08
9.17274e-08
9.26584e-08
9.35863e-08
9.45106e-08
9.54305e-08
9.63451e-08
9.72535e-08
9.81546e-08
9.90475e-08
9.99309e-08
1.00803e-07
1.01664e-07
1.0251e-07
1.03341e-07
1.04154e-07
1.04947e-07
1.05718e-07
1.06465e-07
1.07184e-07
1.07872e-07
1.08525e-07
1.09141e-07
1.09714e-07
1.10239e-07
1.10712e-07
1.11126e-07
1.11475e-07
1.1175e-07
1.11944e-07
1.12047e-07
4.63616e-14
1.48567e-13
2.60689e-13
3.83356e-13
5.17285e-13
6.63192e-13
8.21781e-13
9.9375e-13
1.1798e-12
1.38063e-12
1.59696e-12
1.82953e-12
2.07909e-12
2.3464e-12
2.63225e-12
2.93745e-12
3.26283e-12
3.60923e-12
3.97753e-12
4.36863e-12
4.78345e-12
5.22292e-12
5.68802e-12
6.17975e-12
6.6991e-12
7.24714e-12
7.82492e-12
8.43353e-12
9.07411e-12
9.74778e-12
1.04557e-11
1.11992e-11
1.19793e-11
1.27974e-11
1.36547e-11
1.45526e-11
1.54924e-11
1.64755e-11
1.75033e-11
1.85772e-11
1.96987e-11
2.08694e-11
2.20907e-11
2.33643e-11
2.46917e-11
2.60746e-11
2.75148e-11
2.9014e-11
3.05738e-11
3.21962e-11
3.38831e-11
3.56362e-11
3.74576e-11
3.93493e-11
4.13134e-11
4.33518e-11
4.54669e-11
4.76607e-11
4.99355e-11
5.22937e-11
5.47376e-11
5.72697e-11
5.98924e-11
6.26082e-11
6.54199e-11
6.83301e-11