/*--------------------------------*- C++ -*----------------------------------*\
  =========                 |
  \\      /  F ield         | OpenFOAM: The Open Source CFD Toolbox
   \\    /   O peration     | Website:  https://openfoam.org
    \\  /    A nd           | Version:  dev
     \\/     M anipulation  |
\*---------------------------------------------------------------------------*/
FoamFile
{
    format      ascii;
    class       volScalarField;
    location    "0.34";
    object      beta;
}
// * * * * * * * * * * * * * * * * * * * * * * * * * * * * * * * * * * * * * //

dimensions      [0 0 0 0 0 0 0];

internalField   uniform 0;

boundaryField
{
    frontAndBack
    {
        type            empty;
    }
    inlet
    {
        type            calculated;
        value           uniform 0;
    }
    outlet
    {
        type            calculated;
        value           uniform 0;
    }
    substrate
    {
        type            calculated;
        value           nonuniform List<scalar> 
400
(
0.00276608
0.00290564
0.00300803
0.00310162
0.00319055
0.00327519
0.00335654
0.00343547
0.00351263
0.00358845
0.00366328
0.00373739
0.00381096
0.00388416
0.0039571
0.00402986
0.00410251
0.00417509
0.00424762
0.00432013
0.00439261
0.00446508
0.0045375
0.00460989
0.00468221
0.00475445
0.00482658
0.0048986
0.00497046
0.00504215
0.00511363
0.0051849
0.00525592
0.00532666
0.00539711
0.00546723
0.005537
0.00560641
0.00567543
0.00574403
0.00581219
0.0058799
0.00594714
0.00601388
0.0060801
0.0061458
0.00621094
0.00627553
0.00633953
0.00640294
0.00646574
0.00652792
0.00658947
0.00665037
0.00671062
0.0067702
0.00682911
0.00688733
0.00694487
0.00700171
0.00705784
0.00711327
0.00716798
0.00722197
0.00727525
0.00732779
0.00737961
0.0074307
0.00748107
0.0075307
0.0075796
0.00762777
0.00767521
0.00772192
0.0077679
0.00781317
0.00785771
0.00790153
0.00794463
0.00798703
0.00802872
0.00806971
0.00811
0.0081496
0.00818851
0.00822674
0.00826429
0.00830118
0.0083374
0.00837297
0.00840789
0.00844217
0.00847581
0.00850882
0.00854121
0.00857299
0.00860416
0.00863474
0.00866472
0.00869413
0.00872295
0.00875122
0.00877892
0.00880607
0.00883268
0.00885876
0.00888431
0.00890934
0.00893386
0.00895788
0.0089814
0.00900444
0.009027
0.0090491
0.00907073
0.0090919
0.00911263
0.00913292
0.00915278
0.00917222
0.00919124
0.00920985
0.00922806
0.00924588
0.00926331
0.00928036
0.00929705
0.00931336
0.00932932
0.00934493
0.0093602
0.00937513
0.00938973
0.009404
0.00941796
0.0094316
0.00944494
0.00945798
0.00947073
0.00948319
0.00949537
0.00950728
0.00951891
0.00953029
0.0095414
0.00955226
0.00956288
0.00957325
0.00958338
0.00959328
0.00960296
0.00961241
0.00962165
0.00963067
0.00963948
0.00964809
0.00965651
0.00966472
0.00967275
0.00968059
0.00968824
0.00969572
0.00970303
0.00971016
0.00971713
0.00972394
0.00973058
0.00973707
0.00974341
0.0097496
0.00975564
0.00976154
0.00976731
0.00977293
0.00977843
0.00978379
0.00978903
0.00979414
0.00979914
0.00980401
0.00980877
0.00981342
0.00981795
0.00982238
0.00982671
0.00983093
0.00983505
0.00983907
0.009843
0.00984683
0.00985057
0.00985422
0.00985779
0.00986127
0.00986467
0.00986798
0.00987122
0.00987438
0.00987746
0.00988047
0.00988341
0.00988628
0.00988908
0.00989181
0.00989447
0.00989708
0.00989962
0.00990209
0.00990451
0.00990687
0.00990918
0.00991143
0.00991362
0.00991576
0.00991785
0.00991989
0.00992188
0.00992382
0.00992572
0.00992757
0.00992937
0.00993113
0.00993285
0.00993453
0.00993616
0.00993776
0.00993932
0.00994084
0.00994232
0.00994377
0.00994518
0.00994656
0.0099479
0.00994921
0.00995049
0.00995174
0.00995296
0.00995415
0.00995531
0.00995644
0.00995755
0.00995862
0.00995967
0.0099607
0.0099617
0.00996267
0.00996362
0.00996455
0.00996546
0.00996634
0.0099672
0.00996804
0.00996886
0.00996966
0.00997044
0.0099712
0.00997195
0.00997267
0.00997338
0.00997407
0.00997474
0.00997539
0.00997603
0.00997665
0.00997726
0.00997785
0.00997843
0.00997899
0.00997954
0.00998008
0.0099806
0.00998111
0.00998161
0.00998209
0.00998256
0.00998302
0.00998347
0.00998391
0.00998434
0.00998475
0.00998516
0.00998555
0.00998594
0.00998632
0.00998668
0.00998704
0.00998739
0.00998772
0.00998805
0.00998838
0.00998869
0.009989
0.00998929
0.00998958
0.00998987
0.00999014
0.00999041
0.00999067
0.00999093
0.00999118
0.00999142
0.00999166
0.00999188
0.00999211
0.00999233
0.00999254
0.00999275
0.00999295
0.00999314
0.00999333
0.00999352
0.0099937
0.00999388
0.00999405
0.00999422
0.00999438
0.00999454
0.00999469
0.00999484
0.00999499
0.00999513
0.00999527
0.00999541
0.00999554
0.00999566
0.00999579
0.00999591
0.00999603
0.00999614
0.00999625
0.00999636
0.00999647
0.00999657
0.00999667
0.00999677
0.00999686
0.00999695
0.00999704
0.00999713
0.00999721
0.0099973
0.00999738
0.00999745
0.00999753
0.0099976
0.00999767
0.00999774
0.00999781
0.00999788
0.00999794
0.009998
0.00999806
0.00999812
0.00999818
0.00999823
0.00999829
0.00999834
0.00999839
0.00999844
0.00999849
0.00999853
0.00999858
0.00999862
0.00999866
0.00999871
0.00999875
0.00999878
0.00999882
0.00999886
0.00999889
0.00999893
0.00999896
0.00999899
0.00999903
0.00999906
0.00999908
0.00999911
0.00999914
0.00999917
0.00999919
0.00999922
0.00999924
0.00999926
0.00999929
0.00999931
0.00999933
0.00999935
0.00999936
0.00999938
0.0099994
0.00999941
0.00999942
0.00999944
0.00999945
0.00999946
0.00999947
0.00999947
0.00999948
0.00999948
0.00999949
)
;
    }
    Wall
    {
        type            calculated;
        value           nonuniform List<scalar> 
400
(
0.00276608
0.00290564
0.00300802
0.00310161
0.00319055
0.0032752
0.00335655
0.00343549
0.00351265
0.00358847
0.00366331
0.00373741
0.00381099
0.00388419
0.00395712
0.00402988
0.00410253
0.00417511
0.00424764
0.00432015
0.00439263
0.00446509
0.00453752
0.0046099
0.00468222
0.00475445
0.00482659
0.0048986
0.00497046
0.00504215
0.00511363
0.0051849
0.00525591
0.00532665
0.0053971
0.00546722
0.005537
0.0056064
0.00567542
0.00574402
0.00581218
0.00587989
0.00594712
0.00601386
0.00608009
0.00614578
0.00621093
0.00627551
0.00633951
0.00640292
0.00646572
0.0065279
0.00658945
0.00665035
0.0067106
0.00677018
0.00682909
0.00688731
0.00694485
0.00700169
0.00705782
0.00711325
0.00716796
0.00722195
0.00727522
0.00732777
0.00737959
0.00743068
0.00748105
0.00753068
0.00757958
0.00762775
0.00767519
0.0077219
0.00776788
0.00781314
0.00785769
0.00790151
0.00794461
0.00798701
0.0080287
0.00806969
0.00810998
0.00814958
0.00818849
0.00822672
0.00826428
0.00830116
0.00833739
0.00837296
0.00840787
0.00844215
0.00847579
0.0085088
0.0085412
0.00857298
0.00860415
0.00863472
0.00866471
0.00869411
0.00872294
0.0087512
0.00877891
0.00880606
0.00883267
0.00885875
0.0088843
0.00890933
0.00893385
0.00895787
0.00898139
0.00900443
0.00902699
0.00904909
0.00907072
0.00909189
0.00911262
0.00913291
0.00915277
0.00917221
0.00919123
0.00920984
0.00922805
0.00924587
0.0092633
0.00928036
0.00929704
0.00931336
0.00932932
0.00934493
0.00936019
0.00937512
0.00938972
0.00940399
0.00941795
0.00943159
0.00944493
0.00945798
0.00947072
0.00948319
0.00949537
0.00950727
0.00951891
0.00953028
0.0095414
0.00955226
0.00956287
0.00957324
0.00958338
0.00959328
0.00960295
0.00961241
0.00962164
0.00963066
0.00963948
0.00964809
0.0096565
0.00966472
0.00967274
0.00968058
0.00968824
0.00969572
0.00970302
0.00971016
0.00971713
0.00972393
0.00973058
0.00973707
0.00974341
0.00974959
0.00975564
0.00976154
0.0097673
0.00977293
0.00977842
0.00978379
0.00978903
0.00979414
0.00979913
0.00980401
0.00980877
0.00981341
0.00981795
0.00982238
0.0098267
0.00983092
0.00983505
0.00983907
0.00984299
0.00984683
0.00985057
0.00985422
0.00985779
0.00986127
0.00986467
0.00986798
0.00987122
0.00987438
0.00987746
0.00988047
0.00988341
0.00988628
0.00988908
0.00989181
0.00989447
0.00989707
0.00989961
0.00990209
0.00990451
0.00990687
0.00990918
0.00991142
0.00991362
0.00991576
0.00991785
0.00991989
0.00992188
0.00992382
0.00992572
0.00992756
0.00992937
0.00993113
0.00993285
0.00993453
0.00993616
0.00993776
0.00993932
0.00994084
0.00994232
0.00994377
0.00994518
0.00994656
0.0099479
0.00994921
0.00995049
0.00995174
0.00995296
0.00995415
0.00995531
0.00995644
0.00995754
0.00995862
0.00995967
0.0099607
0.0099617
0.00996267
0.00996362
0.00996455
0.00996546
0.00996634
0.0099672
0.00996804
0.00996886
0.00996966
0.00997044
0.0099712
0.00997195
0.00997267
0.00997338
0.00997406
0.00997474
0.00997539
0.00997603
0.00997665
0.00997726
0.00997785
0.00997843
0.00997899
0.00997954
0.00998008
0.0099806
0.00998111
0.00998161
0.00998209
0.00998256
0.00998302
0.00998347
0.00998391
0.00998434
0.00998475
0.00998516
0.00998555
0.00998594
0.00998631
0.00998668
0.00998704
0.00998739
0.00998772
0.00998805
0.00998838
0.00998869
0.009989
0.00998929
0.00998958
0.00998987
0.00999014
0.00999041
0.00999067
0.00999093
0.00999118
0.00999142
0.00999165
0.00999188
0.00999211
0.00999233
0.00999254
0.00999275
0.00999295
0.00999314
0.00999333
0.00999352
0.0099937
0.00999388
0.00999405
0.00999422
0.00999438
0.00999454
0.00999469
0.00999484
0.00999499
0.00999513
0.00999527
0.0099954
0.00999554
0.00999566
0.00999579
0.00999591
0.00999603
0.00999614
0.00999625
0.00999636
0.00999647
0.00999657
0.00999667
0.00999677
0.00999686
0.00999695
0.00999704
0.00999713
0.00999721
0.0099973
0.00999738
0.00999745
0.00999753
0.0099976
0.00999767
0.00999774
0.00999781
0.00999788
0.00999794
0.009998
0.00999806
0.00999812
0.00999818
0.00999823
0.00999829
0.00999834
0.00999839
0.00999844
0.00999849
0.00999853
0.00999858
0.00999862
0.00999866
0.00999871
0.00999875
0.00999878
0.00999882
0.00999886
0.00999889
0.00999893
0.00999896
0.00999899
0.00999903
0.00999906
0.00999908
0.00999911
0.00999914
0.00999917
0.00999919
0.00999922
0.00999924
0.00999926
0.00999929
0.00999931
0.00999933
0.00999935
0.00999936
0.00999938
0.0099994
0.00999941
0.00999942
0.00999944
0.00999945
0.00999946
0.00999947
0.00999947
0.00999948
0.00999948
0.00999949
)
;
    }
}


// ************************************************************************* //
