/*--------------------------------*- C++ -*----------------------------------*\
  =========                 |
  \\      /  F ield         | OpenFOAM: The Open Source CFD Toolbox
   \\    /   O peration     | Website:  https://openfoam.org
    \\  /    A nd           | Version:  dev
     \\/     M anipulation  |
\*---------------------------------------------------------------------------*/
FoamFile
{
    format      ascii;
    class       volScalarField;
    location    "0.34";
    object      Exp1;
}
// * * * * * * * * * * * * * * * * * * * * * * * * * * * * * * * * * * * * * //

dimensions      [0 0 0 0 0 0 0];

internalField   uniform 0;

boundaryField
{
    frontAndBack
    {
        type            empty;
    }
    inlet
    {
        type            calculated;
        value           uniform 0;
    }
    outlet
    {
        type            calculated;
        value           uniform 0;
    }
    substrate
    {
        type            calculated;
        value           nonuniform List<scalar> 
400
(
3.02807e-09
9.64407e-09
1.69213e-08
2.48281e-08
3.33682e-08
4.257e-08
5.24605e-08
6.30682e-08
7.44251e-08
8.65656e-08
9.95265e-08
1.13346e-07
1.28063e-07
1.43719e-07
1.60355e-07
1.78011e-07
1.96732e-07
2.16558e-07
2.37533e-07
2.59699e-07
2.83101e-07
3.07781e-07
3.33783e-07
3.61152e-07
3.89932e-07
4.20167e-07
4.51904e-07
4.85187e-07
5.20063e-07
5.56577e-07
5.94776e-07
6.34708e-07
6.7642e-07
7.19959e-07
7.65374e-07
8.12713e-07
8.62025e-07
9.1336e-07
9.66766e-07
1.02229e-06
1.07999e-06
1.13992e-06
1.20211e-06
1.26663e-06
1.33353e-06
1.40285e-06
1.47465e-06
1.54898e-06
1.62589e-06
1.70544e-06
1.78767e-06
1.87265e-06
1.96041e-06
2.05103e-06
2.14454e-06
2.241e-06
2.34046e-06
2.44299e-06
2.54862e-06
2.65741e-06
2.76942e-06
2.8847e-06
3.00329e-06
3.12526e-06
3.25066e-06
3.37953e-06
3.51193e-06
3.64791e-06
3.78752e-06
3.93081e-06
4.07783e-06
4.22863e-06
4.38326e-06
4.54177e-06
4.7042e-06
4.87061e-06
5.04104e-06
5.21553e-06
5.39414e-06
5.5769e-06
5.76386e-06
5.95506e-06
6.15054e-06
6.35034e-06
6.5545e-06
6.76307e-06
6.97606e-06
7.19353e-06
7.41551e-06
7.64202e-06
7.8731e-06
8.10878e-06
8.34908e-06
8.59404e-06
8.84367e-06
9.098e-06
9.35705e-06
9.62084e-06
9.88938e-06
1.01627e-05
1.04408e-05
1.07237e-05
1.10114e-05
1.13039e-05
1.16012e-05
1.19033e-05
1.22102e-05
1.25219e-05
1.28385e-05
1.31598e-05
1.34859e-05
1.38167e-05
1.41523e-05
1.44926e-05
1.48376e-05
1.51873e-05
1.55416e-05
1.59006e-05
1.62641e-05
1.66321e-05
1.70046e-05
1.73815e-05
1.77628e-05
1.81485e-05
1.85384e-05
1.89326e-05
1.93309e-05
1.97333e-05
2.01397e-05
2.055e-05
2.09642e-05
2.13822e-05
2.18039e-05
2.22291e-05
2.26579e-05
2.30901e-05
2.35256e-05
2.39643e-05
2.44061e-05
2.48509e-05
2.52986e-05
2.5749e-05
2.62021e-05
2.66576e-05
2.71156e-05
2.75757e-05
2.8038e-05
2.85023e-05
2.89684e-05
2.94361e-05
2.99054e-05
3.03761e-05
3.0848e-05
3.13209e-05
3.17948e-05
3.22694e-05
3.27445e-05
3.32201e-05
3.36959e-05
3.41717e-05
3.46474e-05
3.51228e-05
3.55978e-05
3.6072e-05
3.65454e-05
3.70178e-05
3.74889e-05
3.79586e-05
3.84266e-05
3.88929e-05
3.93571e-05
3.98192e-05
4.02788e-05
4.07359e-05
4.11901e-05
4.16414e-05
4.20895e-05
4.25341e-05
4.29752e-05
4.34125e-05
4.38458e-05
4.42749e-05
4.46996e-05
4.51197e-05
4.5535e-05
4.59454e-05
4.63506e-05
4.67504e-05
4.71447e-05
4.75332e-05
4.79157e-05
4.82922e-05
4.86624e-05
4.9026e-05
4.9383e-05
4.97332e-05
5.00764e-05
5.04124e-05
5.0741e-05
5.10621e-05
5.13755e-05
5.16812e-05
5.19788e-05
5.22683e-05
5.25495e-05
5.28223e-05
5.30865e-05
5.33421e-05
5.35888e-05
5.38266e-05
5.40554e-05
5.42749e-05
5.44852e-05
5.46861e-05
5.48775e-05
5.50593e-05
5.52315e-05
5.53939e-05
5.55464e-05
5.56891e-05
5.58218e-05
5.59445e-05
5.6057e-05
5.61595e-05
5.62517e-05
5.63337e-05
5.64055e-05
5.6467e-05
5.65182e-05
5.6559e-05
5.65895e-05
5.66097e-05
5.66196e-05
5.66192e-05
5.66085e-05
5.65875e-05
5.65562e-05
5.65146e-05
5.64628e-05
5.64009e-05
5.63288e-05
5.62467e-05
5.61545e-05
5.60525e-05
5.59405e-05
5.58188e-05
5.56873e-05
5.55463e-05
5.53956e-05
5.52356e-05
5.50662e-05
5.48875e-05
5.46997e-05
5.45029e-05
5.42972e-05
5.40827e-05
5.38596e-05
5.36279e-05
5.33879e-05
5.31395e-05
5.28831e-05
5.26187e-05
5.23465e-05
5.20667e-05
5.17793e-05
5.14846e-05
5.11826e-05
5.08737e-05
5.05578e-05
5.02353e-05
4.99063e-05
4.95709e-05
4.92293e-05
4.88817e-05
4.85282e-05
4.81692e-05
4.78046e-05
4.74348e-05
4.70598e-05
4.668e-05
4.62954e-05
4.59062e-05
4.55127e-05
4.5115e-05
4.47133e-05
4.43078e-05
4.38986e-05
4.3486e-05
4.30702e-05
4.26513e-05
4.22294e-05
4.18049e-05
4.13779e-05
4.09485e-05
4.05169e-05
4.00834e-05
3.96481e-05
3.92111e-05
3.87727e-05
3.8333e-05
3.78922e-05
3.74504e-05
3.70078e-05
3.65647e-05
3.61211e-05
3.56772e-05
3.52332e-05
3.47892e-05
3.43454e-05
3.39019e-05
3.34589e-05
3.30165e-05
3.25749e-05
3.21342e-05
3.16945e-05
3.12561e-05
3.08189e-05
3.03832e-05
2.9949e-05
2.95165e-05
2.90859e-05
2.86572e-05
2.82305e-05
2.78059e-05
2.73836e-05
2.69637e-05
2.65463e-05
2.61314e-05
2.57191e-05
2.53096e-05
2.4903e-05
2.44992e-05
2.40985e-05
2.37008e-05
2.33064e-05
2.29151e-05
2.25271e-05
2.21425e-05
2.17614e-05
2.13837e-05
2.10096e-05
2.06391e-05
2.02722e-05
1.99091e-05
1.95497e-05
1.91941e-05
1.88423e-05
1.84945e-05
1.81505e-05
1.78105e-05
1.74745e-05
1.71425e-05
1.68146e-05
1.64907e-05
1.61709e-05
1.58552e-05
1.55437e-05
1.52364e-05
1.49332e-05
1.46342e-05
1.43395e-05
1.4049e-05
1.37627e-05
1.34808e-05
1.32031e-05
1.29298e-05
1.26608e-05
1.23962e-05
1.2136e-05
1.18803e-05
1.1629e-05
1.13822e-05
1.114e-05
1.09025e-05
1.06696e-05
1.04415e-05
1.02183e-05
1.00001e-05
9.78689e-06
9.57893e-06
9.37635e-06
9.17931e-06
8.98804e-06
8.80275e-06
8.62372e-06
8.45125e-06
8.28569e-06
8.12743e-06
7.97691e-06
7.83465e-06
7.70121e-06
7.57721e-06
7.46337e-06
7.36047e-06
7.26937e-06
7.19099e-06
7.12633e-06
7.07641e-06
7.04226e-06
7.02482e-06
)
;
    }
    Wall
    {
        type            calculated;
        value           nonuniform List<scalar> 
400
(
3.02802e-09
9.64391e-09
1.6921e-08
2.48276e-08
3.33676e-08
4.25691e-08
5.24593e-08
6.30668e-08
7.44233e-08
8.65634e-08
9.95237e-08
1.13343e-07
1.28059e-07
1.43715e-07
1.6035e-07
1.78006e-07
1.96725e-07
2.1655e-07
2.37524e-07
2.5969e-07
2.8309e-07
3.0777e-07
3.33771e-07
3.61139e-07
3.89918e-07
4.20153e-07
4.51888e-07
4.8517e-07
5.20045e-07
5.56558e-07
5.94757e-07
6.34688e-07
6.76398e-07
7.19937e-07
7.6535e-07
8.12688e-07
8.62e-07
9.13333e-07
9.66738e-07
1.02226e-06
1.07996e-06
1.13988e-06
1.20208e-06
1.2666e-06
1.33349e-06
1.40281e-06
1.47461e-06
1.54894e-06
1.62585e-06
1.70539e-06
1.78763e-06
1.8726e-06
1.96036e-06
2.05097e-06
2.14448e-06
2.24094e-06
2.34041e-06
2.44293e-06
2.54856e-06
2.65735e-06
2.76935e-06
2.88463e-06
3.00322e-06
3.12519e-06
3.25058e-06
3.37945e-06
3.51185e-06
3.64783e-06
3.78743e-06
3.93072e-06
4.07774e-06
4.22854e-06
4.38317e-06
4.54167e-06
4.70411e-06
4.87051e-06
5.04094e-06
5.21543e-06
5.39403e-06
5.57679e-06
5.76374e-06
5.95494e-06
6.15042e-06
6.35022e-06
6.55438e-06
6.76294e-06
6.97593e-06
7.1934e-06
7.41537e-06
7.64187e-06
7.87295e-06
8.10862e-06
8.34892e-06
8.59387e-06
8.8435e-06
9.09783e-06
9.35687e-06
9.62066e-06
9.8892e-06
1.01625e-05
1.04406e-05
1.07235e-05
1.10112e-05
1.13037e-05
1.1601e-05
1.19031e-05
1.221e-05
1.25217e-05
1.28382e-05
1.31596e-05
1.34856e-05
1.38165e-05
1.41521e-05
1.44924e-05
1.48374e-05
1.51871e-05
1.55414e-05
1.59003e-05
1.62638e-05
1.66318e-05
1.70043e-05
1.73812e-05
1.77625e-05
1.81482e-05
1.85381e-05
1.89323e-05
1.93306e-05
1.9733e-05
2.01394e-05
2.05497e-05
2.09639e-05
2.13819e-05
2.18035e-05
2.22288e-05
2.26576e-05
2.30898e-05
2.35252e-05
2.3964e-05
2.44058e-05
2.48505e-05
2.52982e-05
2.57486e-05
2.62017e-05
2.66572e-05
2.71152e-05
2.75754e-05
2.80376e-05
2.85019e-05
2.8968e-05
2.94357e-05
2.9905e-05
3.03757e-05
3.08476e-05
3.13205e-05
3.17944e-05
3.2269e-05
3.27441e-05
3.32197e-05
3.36954e-05
3.41713e-05
3.4647e-05
3.51224e-05
3.55973e-05
3.60716e-05
3.65449e-05
3.70173e-05
3.74884e-05
3.79581e-05
3.84262e-05
3.88924e-05
3.93567e-05
3.98187e-05
4.02783e-05
4.07354e-05
4.11896e-05
4.16409e-05
4.2089e-05
4.25336e-05
4.29747e-05
4.3412e-05
4.38453e-05
4.42744e-05
4.46991e-05
4.51192e-05
4.55345e-05
4.59449e-05
4.63501e-05
4.67499e-05
4.71441e-05
4.75327e-05
4.79152e-05
4.82917e-05
4.86619e-05
4.90255e-05
4.93825e-05
4.97327e-05
5.00759e-05
5.04118e-05
5.07405e-05
5.10616e-05
5.1375e-05
5.16806e-05
5.19783e-05
5.22678e-05
5.2549e-05
5.28218e-05
5.3086e-05
5.33416e-05
5.35883e-05
5.38261e-05
5.40549e-05
5.42744e-05
5.44847e-05
5.46856e-05
5.4877e-05
5.50589e-05
5.5231e-05
5.53934e-05
5.5546e-05
5.56887e-05
5.58213e-05
5.5944e-05
5.60566e-05
5.6159e-05
5.62513e-05
5.63333e-05
5.64051e-05
5.64666e-05
5.65177e-05
5.65586e-05
5.65891e-05
5.66093e-05
5.66192e-05
5.66188e-05
5.66082e-05
5.65871e-05
5.65558e-05
5.65142e-05
5.64625e-05
5.64005e-05
5.63284e-05
5.62463e-05
5.61542e-05
5.60521e-05
5.59402e-05
5.58185e-05
5.5687e-05
5.55459e-05
5.53953e-05
5.52353e-05
5.50659e-05
5.48872e-05
5.46994e-05
5.45026e-05
5.42969e-05
5.40824e-05
5.38593e-05
5.36277e-05
5.33876e-05
5.31393e-05
5.28829e-05
5.26185e-05
5.23463e-05
5.20665e-05
5.17791e-05
5.14844e-05
5.11824e-05
5.08735e-05
5.05577e-05
5.02351e-05
4.99061e-05
4.95707e-05
4.92291e-05
4.88815e-05
4.85281e-05
4.8169e-05
4.78045e-05
4.74346e-05
4.70597e-05
4.66799e-05
4.62953e-05
4.59061e-05
4.55126e-05
4.51149e-05
4.47132e-05
4.43076e-05
4.38985e-05
4.34859e-05
4.30701e-05
4.26512e-05
4.22294e-05
4.18048e-05
4.13778e-05
4.09484e-05
4.05169e-05
4.00834e-05
3.9648e-05
3.92111e-05
3.87726e-05
3.83329e-05
3.78921e-05
3.74504e-05
3.70078e-05
3.65647e-05
3.61211e-05
3.56772e-05
3.52332e-05
3.47892e-05
3.43454e-05
3.39019e-05
3.34589e-05
3.30165e-05
3.25749e-05
3.21342e-05
3.16945e-05
3.12561e-05
3.08189e-05
3.03832e-05
2.9949e-05
2.95166e-05
2.90859e-05
2.86572e-05
2.82305e-05
2.7806e-05
2.73837e-05
2.69638e-05
2.65463e-05
2.61314e-05
2.57192e-05
2.53097e-05
2.4903e-05
2.44993e-05
2.40986e-05
2.37009e-05
2.33064e-05
2.29152e-05
2.25272e-05
2.21426e-05
2.17614e-05
2.13838e-05
2.10097e-05
2.06391e-05
2.02723e-05
1.99091e-05
1.95498e-05
1.91942e-05
1.88424e-05
1.84945e-05
1.81506e-05
1.78106e-05
1.74746e-05
1.71426e-05
1.68146e-05
1.64908e-05
1.6171e-05
1.58553e-05
1.55438e-05
1.52364e-05
1.49333e-05
1.46343e-05
1.43396e-05
1.40491e-05
1.37628e-05
1.34809e-05
1.32032e-05
1.29299e-05
1.26609e-05
1.23963e-05
1.21361e-05
1.18803e-05
1.16291e-05
1.13823e-05
1.11401e-05
1.09026e-05
1.06697e-05
1.04416e-05
1.02184e-05
1.00001e-05
9.78696e-06
9.579e-06
9.37641e-06
9.17938e-06
8.9881e-06
8.80281e-06
8.62378e-06
8.45131e-06
8.28575e-06
8.12749e-06
7.97698e-06
7.83472e-06
7.70128e-06
7.57728e-06
7.46344e-06
7.36054e-06
7.26944e-06
7.19107e-06
7.12641e-06
7.07649e-06
7.04235e-06
7.02491e-06
)
;
    }
}


// ************************************************************************* //
