/*--------------------------------*- C++ -*----------------------------------*\
  =========                 |
  \\      /  F ield         | OpenFOAM: The Open Source CFD Toolbox
   \\    /   O peration     | Website:  https://openfoam.org
    \\  /    A nd           | Version:  dev
     \\/     M anipulation  |
\*---------------------------------------------------------------------------*/
FoamFile
{
    format      ascii;
    class       volScalarField;
    location    "0.34";
    object      growth;
}
// * * * * * * * * * * * * * * * * * * * * * * * * * * * * * * * * * * * * * //

dimensions      [0 0 0 0 0 0 0];

internalField   uniform 0;

boundaryField
{
    frontAndBack
    {
        type            empty;
    }
    inlet
    {
        type            calculated;
        value           uniform 0;
    }
    outlet
    {
        type            calculated;
        value           uniform 0;
    }
    substrate
    {
        type            calculated;
        value           nonuniform List<scalar> 
400
(
0.723392
0.709436
0.699197
0.689838
0.680945
0.672481
0.664346
0.656453
0.648737
0.641155
0.633672
0.626261
0.618904
0.611584
0.60429
0.597014
0.589749
0.582491
0.575238
0.567987
0.560739
0.553492
0.54625
0.539011
0.531779
0.524555
0.517342
0.51014
0.502954
0.495785
0.488637
0.48151
0.474408
0.467334
0.460289
0.453277
0.4463
0.439359
0.432457
0.425597
0.418781
0.41201
0.405286
0.398612
0.39199
0.38542
0.378906
0.372447
0.366047
0.359706
0.353426
0.347208
0.341053
0.334963
0.328938
0.32298
0.317089
0.311267
0.305513
0.299829
0.294216
0.288673
0.283202
0.277803
0.272475
0.267221
0.262039
0.25693
0.251893
0.24693
0.24204
0.237223
0.232479
0.227808
0.22321
0.218683
0.214229
0.209847
0.205537
0.201297
0.197128
0.193029
0.189
0.18504
0.181149
0.177326
0.173571
0.169882
0.16626
0.162703
0.159211
0.155783
0.152419
0.149118
0.145879
0.142701
0.139584
0.136526
0.133528
0.130587
0.127705
0.124878
0.122108
0.119393
0.116732
0.114124
0.111569
0.109066
0.106614
0.104212
0.10186
0.0995556
0.0972995
0.0950904
0.0929274
0.0908099
0.088737
0.086708
0.0847221
0.0827785
0.0808764
0.0790152
0.077194
0.0754121
0.0736689
0.0719635
0.0702953
0.0686635
0.0670675
0.0655066
0.06398
0.0624872
0.0610274
0.0596
0.0582044
0.0568399
0.0555059
0.0542018
0.052927
0.0516808
0.0504627
0.0492722
0.0481086
0.0469713
0.0458599
0.0447738
0.0437124
0.0426753
0.0416618
0.0406716
0.0397041
0.0387589
0.0378353
0.0369331
0.0360517
0.0351906
0.0343495
0.0335278
0.0327252
0.0319412
0.0311755
0.0304276
0.0296971
0.0289837
0.0282869
0.0276064
0.0269419
0.0262929
0.0256591
0.0250402
0.0244359
0.0238457
0.0232695
0.0227068
0.0221574
0.0216209
0.0210971
0.0205857
0.0200864
0.0195989
0.019123
0.0186583
0.0182046
0.0177618
0.0173294
0.0169073
0.0164952
0.016093
0.0157003
0.015317
0.0149428
0.0145775
0.014221
0.013873
0.0135332
0.0132016
0.012878
0.012562
0.0122537
0.0119527
0.0116589
0.0113722
0.0110923
0.0108192
0.0105526
0.0102924
0.0100385
0.00979063
0.00954875
0.0093127
0.00908232
0.0088575
0.00863808
0.00842396
0.00821499
0.00801107
0.00781206
0.00761786
0.00742835
0.00724341
0.00706295
0.00688685
0.006715
0.00654732
0.00638369
0.00622403
0.00606823
0.00591622
0.00576788
0.00562315
0.00548193
0.00534414
0.00520969
0.00507852
0.00495053
0.00482566
0.00470382
0.00458496
0.00446899
0.00435584
0.00424546
0.00413777
0.00403271
0.00393021
0.00383022
0.00373268
0.00363752
0.0035447
0.00345414
0.00336581
0.00327964
0.00319559
0.0031136
0.00303363
0.00295562
0.00287954
0.00280532
0.00273294
0.00266234
0.00259348
0.00252633
0.00246083
0.00239695
0.00233466
0.00227391
0.00221466
0.00215689
0.00210055
0.00204561
0.00199203
0.00193979
0.00188886
0.00183919
0.00179077
0.00174355
0.00169751
0.00165263
0.00160888
0.00156622
0.00152463
0.00148409
0.00144457
0.00140604
0.00136849
0.00133189
0.00129621
0.00126143
0.00122754
0.0011945
0.00116231
0.00113093
0.00110035
0.00107056
0.00104152
0.00101322
0.000985654
0.00095879
0.000932616
0.000907114
0.000882269
0.000858064
0.000834484
0.000811513
0.000789136
0.00076734
0.000746109
0.00072543
0.000705289
0.000685674
0.000666571
0.000647967
0.000629851
0.00061221
0.000595033
0.000578307
0.000562023
0.000546169
0.000530734
0.000515707
0.00050108
0.000486841
0.000472982
0.000459492
0.000446363
0.000433585
0.00042115
0.000409049
0.000397273
0.000385815
0.000374666
0.000363819
0.000353266
0.000342999
0.000333012
0.000323297
0.000313847
0.000304656
0.000295717
0.000287023
0.000278569
0.000270348
0.000262354
0.000254581
0.000247024
0.000239676
0.000232534
0.000225591
0.000218842
0.000212282
0.000205907
0.000199711
0.00019369
0.000187839
0.000182154
0.000176631
0.000171265
0.000166052
0.000160989
0.000156071
0.000151295
0.000146657
0.000142154
0.000137782
0.000133537
0.000129417
0.000125419
0.000121539
0.000117775
0.000114123
0.000110582
0.000107149
0.000103821
0.000100596
9.74729e-05
9.44487e-05
9.15219e-05
8.86911e-05
8.59548e-05
8.33121e-05
8.07619e-05
7.83037e-05
7.5937e-05
7.3662e-05
7.14789e-05
6.93885e-05
6.7392e-05
6.54909e-05
6.36876e-05
6.19849e-05
6.03862e-05
5.88958e-05
5.75187e-05
5.62608e-05
5.51288e-05
5.41305e-05
5.32745e-05
5.25702e-05
5.20276e-05
5.1657e-05
5.14678e-05
)
;
    }
    Wall
    {
        type            calculated;
        value           nonuniform List<scalar> 
400
(
0.723392
0.709436
0.699198
0.689839
0.680945
0.67248
0.664345
0.656451
0.648735
0.641153
0.633669
0.626259
0.618901
0.611581
0.604288
0.597012
0.589747
0.582489
0.575236
0.567985
0.560737
0.553491
0.546248
0.53901
0.531778
0.524555
0.517341
0.51014
0.502954
0.495785
0.488637
0.48151
0.474409
0.467335
0.46029
0.453278
0.4463
0.43936
0.432458
0.425598
0.418782
0.412011
0.405288
0.398614
0.391991
0.385422
0.378907
0.372449
0.366049
0.359708
0.353428
0.34721
0.341055
0.334965
0.32894
0.322982
0.317091
0.311269
0.305515
0.299831
0.294218
0.288675
0.283204
0.277805
0.272478
0.267223
0.262041
0.256932
0.251895
0.246932
0.242042
0.237225
0.232481
0.22781
0.223212
0.218686
0.214231
0.209849
0.205539
0.201299
0.19713
0.193031
0.189002
0.185042
0.181151
0.177328
0.173572
0.169884
0.166261
0.162704
0.159213
0.155785
0.152421
0.14912
0.14588
0.142702
0.139585
0.136528
0.133529
0.130589
0.127706
0.12488
0.122109
0.119394
0.116733
0.114125
0.11157
0.109067
0.106615
0.104213
0.101861
0.0995568
0.0973006
0.0950914
0.0929285
0.090811
0.0887381
0.086709
0.0847231
0.0827794
0.0808774
0.0790161
0.0771949
0.075413
0.0736698
0.0719644
0.0702961
0.0686643
0.0670683
0.0655074
0.0639808
0.0624879
0.0610281
0.0596007
0.0582051
0.0568406
0.0555066
0.0542025
0.0529276
0.0516815
0.0504634
0.0492728
0.0481092
0.0469719
0.0458605
0.0447743
0.043713
0.0426758
0.0416624
0.0406722
0.0397046
0.0387594
0.0378358
0.0369336
0.0360521
0.0351911
0.0343499
0.0335282
0.0327256
0.0319417
0.0311759
0.030428
0.0296975
0.0289841
0.0282873
0.0276068
0.0269422
0.0262932
0.0256595
0.0250406
0.0244362
0.023846
0.0232698
0.0227071
0.0221577
0.0216212
0.0210974
0.020586
0.0200867
0.0195992
0.0191232
0.0186586
0.0182049
0.017762
0.0173296
0.0169075
0.0164955
0.0160932
0.0157005
0.0153172
0.014943
0.0145778
0.0142212
0.0138732
0.0135334
0.0132018
0.0128782
0.0125622
0.0122538
0.0119529
0.0116591
0.0113723
0.0110925
0.0108193
0.0105527
0.0102926
0.0100386
0.00979078
0.0095489
0.00931285
0.00908247
0.00885764
0.00863822
0.00842409
0.00821513
0.0080112
0.00781219
0.00761799
0.00742847
0.00724353
0.00706307
0.00688696
0.00671511
0.00654743
0.0063838
0.00622413
0.00606834
0.00591632
0.00576798
0.00562325
0.00548202
0.00534423
0.00520979
0.00507861
0.00495062
0.00482574
0.00470391
0.00458504
0.00446907
0.00435592
0.00424554
0.00413785
0.00403278
0.00393029
0.0038303
0.00373275
0.00363759
0.00354476
0.00345421
0.00336587
0.0032797
0.00319565
0.00311366
0.00303369
0.00295568
0.00287959
0.00280538
0.00273299
0.00266239
0.00259353
0.00252638
0.00246088
0.002397
0.00233471
0.00227395
0.00221471
0.00215693
0.00210059
0.00204565
0.00199208
0.00193984
0.0018889
0.00183923
0.0017908
0.00174359
0.00169755
0.00165267
0.00160891
0.00156625
0.00152466
0.00148412
0.0014446
0.00140607
0.00136852
0.00133192
0.00129624
0.00126146
0.00122756
0.00119453
0.00116233
0.00113096
0.00110038
0.00107058
0.00104154
0.00101325
0.000985676
0.000958812
0.000932637
0.000907135
0.000882289
0.000858083
0.000834503
0.000811531
0.000789154
0.000767357
0.000746126
0.000725447
0.000705306
0.00068569
0.000666586
0.000647982
0.000629866
0.000612224
0.000595047
0.000578321
0.000562036
0.000546182
0.000530746
0.00051572
0.000501092
0.000486853
0.000472993
0.000459503
0.000446374
0.000433596
0.00042116
0.000409059
0.000397283
0.000385824
0.000374675
0.000363828
0.000353275
0.000343008
0.00033302
0.000323305
0.000313855
0.000304664
0.000295725
0.000287031
0.000278576
0.000270355
0.00026236
0.000254587
0.00024703
0.000239683
0.00023254
0.000225597
0.000218848
0.000212288
0.000205912
0.000199716
0.000193695
0.000187844
0.000182159
0.000176635
0.000171269
0.000166057
0.000160993
0.000156075
0.000151299
0.000146661
0.000142158
0.000137785
0.000133541
0.000129421
0.000125422
0.000121542
0.000117778
0.000114126
0.000110585
0.000107152
0.000103824
0.000100599
9.74755e-05
9.44511e-05
9.15243e-05
8.86934e-05
8.59571e-05
8.33142e-05
8.0764e-05
7.83057e-05
7.5939e-05
7.36639e-05
7.14808e-05
6.93903e-05
6.73937e-05
6.54927e-05
6.36893e-05
6.19866e-05
6.03879e-05
5.88974e-05
5.75203e-05
5.62623e-05
5.51303e-05
5.4132e-05
5.3276e-05
5.25717e-05
5.20291e-05
5.16583e-05
5.14691e-05
)
;
    }
}


// ************************************************************************* //
