/*--------------------------------*- C++ -*----------------------------------*\
  =========                 |
  \\      /  F ield         | OpenFOAM: The Open Source CFD Toolbox
   \\    /   O peration     | Website:  https://openfoam.org
    \\  /    A nd           | Version:  dev
     \\/     M anipulation  |
\*---------------------------------------------------------------------------*/
FoamFile
{
    format      ascii;
    class       volScalarField;
    location    "0.34";
    object      N1;
}
// * * * * * * * * * * * * * * * * * * * * * * * * * * * * * * * * * * * * * //

dimensions      [0 0 0 0 0 0 0];

internalField   nonuniform List<scalar> 
8000
(
2.29905e-08
7.32407e-08
1.2853e-07
1.8862e-07
2.5354e-07
3.23506e-07
3.98726e-07
4.79418e-07
5.65826e-07
6.58216e-07
7.56867e-07
8.62073e-07
9.74137e-07
1.09337e-06
1.22009e-06
1.35461e-06
1.49726e-06
1.64836e-06
1.80825e-06
1.97725e-06
2.1557e-06
2.34393e-06
2.54228e-06
2.75109e-06
2.97071e-06
3.20147e-06
3.44373e-06
3.69784e-06
3.96415e-06
4.24302e-06
4.53481e-06
4.83988e-06
5.1586e-06
5.49134e-06
5.83847e-06
6.20036e-06
6.57739e-06
6.96994e-06
7.3784e-06
7.80314e-06
8.24456e-06
8.70305e-06
9.179e-06
9.6728e-06
1.01849e-05
1.07156e-05
1.12653e-05
1.18345e-05
1.24235e-05
1.30328e-05
1.36628e-05
1.43138e-05
1.49863e-05
1.56807e-05
1.63974e-05
1.71367e-05
1.78992e-05
1.86852e-05
1.94951e-05
2.03294e-05
2.11884e-05
2.20725e-05
2.29822e-05
2.39179e-05
2.48799e-05
2.58686e-05
2.68846e-05
2.7928e-05
2.89995e-05
3.00992e-05
3.12277e-05
3.23853e-05
3.35724e-05
3.47893e-05
3.60365e-05
3.73143e-05
3.8623e-05
3.99631e-05
4.13347e-05
4.27384e-05
4.41745e-05
4.56431e-05
4.71448e-05
4.86797e-05
5.02482e-05
5.18506e-05
5.34872e-05
5.51582e-05
5.68639e-05
5.86045e-05
6.03803e-05
6.21916e-05
6.40385e-05
6.59212e-05
6.78399e-05
6.97948e-05
7.1786e-05
7.38138e-05
7.58782e-05
7.79793e-05
8.01172e-05
8.22921e-05
8.45039e-05
8.67528e-05
8.90387e-05
9.13617e-05
9.37217e-05
9.61187e-05
9.85526e-05
0.000101023
0.000103531
0.000106075
0.000108656
0.000111273
0.000113927
0.000116616
0.000119341
0.000122101
0.000124897
0.000127728
0.000130593
0.000133492
0.000136425
0.000139391
0.000142391
0.000145422
0.000148486
0.000151581
0.000154708
0.000157864
0.00016105
0.000164266
0.000167509
0.000170781
0.000174079
0.000177404
0.000180754
0.000184129
0.000187528
0.00019095
0.000194394
0.000197859
0.000201345
0.000204849
0.000208373
0.000211913
0.00021547
0.000219041
0.000222627
0.000226226
0.000229837
0.000233458
0.000237088
0.000240727
0.000244373
0.000248024
0.00025168
0.000255339
0.000259
0.000262661
0.000266321
0.000269979
0.000273633
0.000277282
0.000280925
0.000284559
0.000288184
0.000291798
0.000295399
0.000298987
0.000302559
0.000306114
0.000309651
0.000313168
0.000316663
0.000320135
0.000323583
0.000327004
0.000330398
0.000333763
0.000337097
0.000340399
0.000343667
0.0003469
0.000350096
0.000353253
0.000356371
0.000359448
0.000362482
0.000365471
0.000368415
0.000371312
0.000374161
0.000376959
0.000379707
0.000382401
0.000385042
0.000387628
0.000390157
0.000392628
0.00039504
0.000397392
0.000399683
0.000401911
0.000404075
0.000406174
0.000408208
0.000410175
0.000412074
0.000413904
0.000415665
0.000417355
0.000418973
0.00042052
0.000421993
0.000423393
0.000424718
0.000425968
0.000427143
0.000428242
0.000429263
0.000430208
0.000431075
0.000431864
0.000432574
0.000433206
0.00043376
0.000434234
0.000434628
0.000434944
0.000435179
0.000435336
0.000435413
0.000435411
0.00043533
0.000435169
0.000434929
0.00043461
0.000434213
0.000433737
0.000433184
0.000432553
0.000431845
0.000431061
0.000430201
0.000429266
0.000428255
0.000427171
0.000426013
0.000424783
0.000423481
0.000422108
0.000420664
0.000419151
0.00041757
0.000415921
0.000414205
0.000412424
0.000410579
0.000408669
0.000406698
0.000404665
0.000402572
0.00040042
0.000398211
0.000395944
0.000393623
0.000391247
0.000388819
0.000386339
0.000383808
0.000381229
0.000378603
0.00037593
0.000373212
0.000370451
0.000367647
0.000364803
0.00036192
0.000358999
0.000356041
0.000353049
0.000350023
0.000346964
0.000343875
0.000340756
0.00033761
0.000334437
0.000331239
0.000328018
0.000324774
0.000321509
0.000318225
0.000314923
0.000311604
0.00030827
0.000304922
0.000301562
0.00029819
0.000294809
0.000291418
0.000288021
0.000284618
0.00028121
0.000277798
0.000274384
0.00027097
0.000267555
0.000264142
0.000260731
0.000257324
0.000253922
0.000250526
0.000247137
0.000243755
0.000240383
0.000237021
0.00023367
0.000230331
0.000227005
0.000223693
0.000220396
0.000217114
0.000213849
0.000210602
0.000207372
0.000204162
0.000200971
0.000197801
0.000194651
0.000191524
0.000188419
0.000185337
0.000182279
0.000179245
0.000176236
0.000173252
0.000170294
0.000167363
0.000164458
0.000161581
0.000158731
0.00015591
0.000153117
0.000150353
0.000147618
0.000144913
0.000142238
0.000139592
0.000136977
0.000134393
0.00013184
0.000129318
0.000126827
0.000124368
0.00012194
0.000119544
0.00011718
0.000114849
0.000112549
0.000110282
0.000108048
0.000105847
0.000103678
0.000101543
9.94409e-05
9.73722e-05
9.53372e-05
9.33361e-05
9.13691e-05
8.94365e-05
8.75388e-05
8.56762e-05
8.38492e-05
8.20584e-05
8.03042e-05
7.85874e-05
7.69089e-05
7.52694e-05
7.367e-05
7.2112e-05
7.05966e-05
6.91255e-05
6.77005e-05
6.63236e-05
6.49972e-05
6.37239e-05
6.25067e-05
6.13492e-05
6.02551e-05
5.92287e-05
5.82751e-05
5.73996e-05
5.66082e-05
5.59075e-05
5.53048e-05
5.48075e-05
5.44236e-05
5.41609e-05
5.40268e-05
2.25222e-08
7.21979e-08
1.27022e-07
1.86908e-07
2.51841e-07
3.2196e-07
3.97446e-07
4.78509e-07
5.65389e-07
6.58352e-07
7.57681e-07
8.63676e-07
9.76644e-07
1.0969e-06
1.22478e-06
1.3606e-06
1.5047e-06
1.65741e-06
1.81907e-06
1.99002e-06
2.1706e-06
2.36116e-06
2.56205e-06
2.77363e-06
2.99623e-06
3.23023e-06
3.47597e-06
3.73384e-06
4.00418e-06
4.28738e-06
4.5838e-06
4.89382e-06
5.21783e-06
5.5562e-06
5.90932e-06
6.27758e-06
6.66137e-06
7.06109e-06
7.47714e-06
7.90992e-06
8.35982e-06
8.82726e-06
9.31264e-06
9.81637e-06
1.03389e-05
1.08805e-05
1.14418e-05
1.20231e-05
1.26248e-05
1.32474e-05
1.38912e-05
1.45568e-05
1.52445e-05
1.59547e-05
1.66879e-05
1.74444e-05
1.82248e-05
1.90295e-05
1.98588e-05
2.07132e-05
2.15932e-05
2.24991e-05
2.34313e-05
2.43904e-05
2.53766e-05
2.63905e-05
2.74324e-05
2.85028e-05
2.9602e-05
3.07305e-05
3.18886e-05
3.30768e-05
3.42955e-05
3.5545e-05
3.68258e-05
3.81382e-05
3.94825e-05
4.08592e-05
4.22687e-05
4.37112e-05
4.51871e-05
4.66968e-05
4.82405e-05
4.98187e-05
5.14316e-05
5.30795e-05
5.47628e-05
5.64816e-05
5.82364e-05
6.00272e-05
6.18545e-05
6.37184e-05
6.56191e-05
6.75569e-05
6.95319e-05
7.15444e-05
7.35945e-05
7.56823e-05
7.7808e-05
7.99718e-05
8.21736e-05
8.44137e-05
8.6692e-05
8.90086e-05
9.13635e-05
9.37568e-05
9.61884e-05
9.86583e-05
0.000101166
0.000103713
0.000106297
0.000108919
0.00011158
0.000114277
0.000117013
0.000119785
0.000122594
0.000125441
0.000128323
0.000131242
0.000134196
0.000137186
0.000140211
0.00014327
0.000146364
0.000149491
0.000152651
0.000155844
0.000159069
0.000162326
0.000165613
0.00016893
0.000172277
0.000175653
0.000179056
0.000182487
0.000185945
0.000189428
0.000192935
0.000196467
0.000200022
0.000203599
0.000207196
0.000210814
0.000214451
0.000218106
0.000221778
0.000225465
0.000229168
0.000232883
0.000236611
0.000240351
0.0002441
0.000247857
0.000251622
0.000255393
0.000259169
0.000262948
0.000266729
0.000270511
0.000274292
0.00027807
0.000281845
0.000285615
0.000289378
0.000293133
0.000296878
0.000300612
0.000304333
0.000308041
0.000311732
0.000315406
0.000319061
0.000322696
0.000326309
0.000329898
0.000333462
0.000336999
0.000340507
0.000343986
0.000347433
0.000350847
0.000354226
0.000357569
0.000360874
0.00036414
0.000367365
0.000370547
0.000373685
0.000376778
0.000379824
0.000382821
0.000385769
0.000388665
0.000391508
0.000394297
0.00039703
0.000399707
0.000402325
0.000404884
0.000407382
0.000409817
0.00041219
0.000414498
0.00041674
0.000418916
0.000421023
0.000423062
0.000425031
0.000426929
0.000428755
0.000430508
0.000432187
0.000433793
0.000435322
0.000436776
0.000438153
0.000439453
0.000440674
0.000441817
0.000442881
0.000443865
0.000444769
0.000445592
0.000446335
0.000446996
0.000447576
0.000448075
0.000448491
0.000448826
0.000449078
0.000449249
0.000449337
0.000449343
0.000449269
0.000449112
0.000448873
0.000448553
0.000448151
0.000447669
0.000447106
0.000446464
0.000445742
0.000444941
0.000444061
0.000443104
0.000442069
0.000440958
0.000439771
0.000438509
0.000437173
0.000435763
0.00043428
0.000432726
0.000431101
0.000429406
0.000427643
0.000425811
0.000423913
0.00042195
0.000419921
0.000417829
0.000415676
0.000413461
0.000411186
0.000408853
0.000406462
0.000404016
0.000401515
0.000398961
0.000396354
0.000393697
0.000390991
0.000388237
0.000385437
0.000382591
0.000379702
0.000376771
0.000373799
0.000370788
0.000367739
0.000364654
0.000361534
0.000358381
0.000355195
0.00035198
0.000348735
0.000345463
0.000342165
0.000338842
0.000335496
0.000332129
0.000328741
0.000325335
0.000321911
0.000318472
0.000315018
0.000311551
0.000308072
0.000304583
0.000301085
0.000297579
0.000294067
0.00029055
0.000287029
0.000283506
0.000279982
0.000276458
0.000272935
0.000269415
0.000265898
0.000262386
0.00025888
0.000255382
0.000251891
0.00024841
0.000244939
0.00024148
0.000238032
0.000234598
0.000231179
0.000227774
0.000224386
0.000221015
0.000217661
0.000214326
0.000211011
0.000207716
0.000204442
0.000201189
0.000197959
0.000194752
0.000191569
0.000188411
0.000185277
0.000182169
0.000179087
0.000176032
0.000173004
0.000170004
0.000167032
0.000164088
0.000161174
0.000158288
0.000155433
0.000152608
0.000149813
0.000147049
0.000144316
0.000141614
0.000138944
0.000136306
0.0001337
0.000131126
0.000128585
0.000126076
0.000123601
0.000121158
0.000118749
0.000116373
0.00011403
0.000111721
0.000109446
0.000107205
0.000104998
0.000102825
0.000100687
9.85835e-05
9.6515e-05
9.44818e-05
9.2484e-05
9.05221e-05
8.85965e-05
8.67076e-05
8.48559e-05
8.30421e-05
8.12668e-05
7.95308e-05
7.78351e-05
7.61807e-05
7.45688e-05
7.30009e-05
7.14785e-05
7.00035e-05
6.8578e-05
6.72044e-05
6.58854e-05
6.46241e-05
6.3424e-05
6.2289e-05
6.12238e-05
6.02332e-05
5.93229e-05
5.84991e-05
5.77687e-05
5.71392e-05
5.66186e-05
5.62154e-05
5.59384e-05
5.5796e-05
2.21011e-08
7.09017e-08
1.24711e-07
1.83679e-07
2.47882e-07
3.17435e-07
3.92494e-07
4.73253e-07
5.59939e-07
6.52813e-07
7.52154e-07
8.5826e-07
9.71444e-07
1.09202e-06
1.22033e-06
1.35669e-06
1.50145e-06
1.65495e-06
1.81753e-06
1.98954e-06
2.17133e-06
2.36325e-06
2.56567e-06
2.77894e-06
3.00343e-06
3.2395e-06
3.48752e-06
3.74787e-06
4.02093e-06
4.30707e-06
4.60669e-06
4.92017e-06
5.2479e-06
5.59028e-06
5.9477e-06
6.32058e-06
6.7093e-06
7.1143e-06
7.53596e-06
7.97472e-06
8.43097e-06
8.90516e-06
9.39769e-06
9.90899e-06
1.04395e-05
1.09896e-05
1.15598e-05
1.21505e-05
1.2762e-05
1.3395e-05
1.40497e-05
1.47267e-05
1.54264e-05
1.61491e-05
1.68954e-05
1.76657e-05
1.84605e-05
1.92801e-05
2.0125e-05
2.09957e-05
2.18925e-05
2.2816e-05
2.37666e-05
2.47446e-05
2.57506e-05
2.6785e-05
2.78482e-05
2.89406e-05
3.00626e-05
3.12147e-05
3.23973e-05
3.36108e-05
3.48555e-05
3.6132e-05
3.74406e-05
3.87817e-05
4.01557e-05
4.1563e-05
4.30039e-05
4.44788e-05
4.5988e-05
4.7532e-05
4.91111e-05
5.07255e-05
5.23757e-05
5.40619e-05
5.57845e-05
5.75437e-05
5.93398e-05
6.11731e-05
6.30438e-05
6.49523e-05
6.68987e-05
6.88832e-05
7.09061e-05
7.29675e-05
7.50676e-05
7.72066e-05
7.93846e-05
8.16018e-05
8.38582e-05
8.61539e-05
8.84891e-05
9.08637e-05
9.32777e-05
9.57313e-05
9.82244e-05
0.000100757
0.000103329
0.00010594
0.000108591
0.00011128
0.000114009
0.000116776
0.000119582
0.000122427
0.000125309
0.000128229
0.000131187
0.000134183
0.000137215
0.000140283
0.000143388
0.000146529
0.000149704
0.000152915
0.000156159
0.000159437
0.000162749
0.000166092
0.000169468
0.000172875
0.000176312
0.000179779
0.000183275
0.000186799
0.000190351
0.000193929
0.000197533
0.000201161
0.000204814
0.000208489
0.000212186
0.000215904
0.000219641
0.000223398
0.000227172
0.000230962
0.000234768
0.000238588
0.00024242
0.000246265
0.000250119
0.000253983
0.000257855
0.000261732
0.000265615
0.000269502
0.000273391
0.000277281
0.00028117
0.000285057
0.00028894
0.000292819
0.00029669
0.000300554
0.000304408
0.000308251
0.000312081
0.000315897
0.000319696
0.000323478
0.000327241
0.000330983
0.000334703
0.000338398
0.000342068
0.000345711
0.000349324
0.000352907
0.000356458
0.000359975
0.000363457
0.000366901
0.000370307
0.000373672
0.000376996
0.000380276
0.000383511
0.0003867
0.00038984
0.000392931
0.000395971
0.000398958
0.000401891
0.000404769
0.000407589
0.000410352
0.000413054
0.000415696
0.000418275
0.00042079
0.000423241
0.000425625
0.000427942
0.000430191
0.00043237
0.000434478
0.000436514
0.000438478
0.000440368
0.000442183
0.000443922
0.000445585
0.000447171
0.000448679
0.000450107
0.000451457
0.000452726
0.000453914
0.000455021
0.000456047
0.00045699
0.00045785
0.000458627
0.00045932
0.00045993
0.000460456
0.000460898
0.000461256
0.000461529
0.000461718
0.000461822
0.000461842
0.00046178
0.000461632
0.0004614
0.000461084
0.000460685
0.000460202
0.000459637
0.00045899
0.00045826
0.00045745
0.000456558
0.000455587
0.000454536
0.000453406
0.000452198
0.000450913
0.000449551
0.000448114
0.000446602
0.000445016
0.000443357
0.000441626
0.000439824
0.000437952
0.000436012
0.000434003
0.000431929
0.000429789
0.000427585
0.000425317
0.000422989
0.0004206
0.000418152
0.000415646
0.000413083
0.000410466
0.000407795
0.000405072
0.000402298
0.000399474
0.000396603
0.000393685
0.000390722
0.000387716
0.000384668
0.000381579
0.00037845
0.000375285
0.000372083
0.000368847
0.000365578
0.000362277
0.000358946
0.000355587
0.000352201
0.000348789
0.000345354
0.000341896
0.000338417
0.000334918
0.000331402
0.000327869
0.00032432
0.000320759
0.000317185
0.0003136
0.000310005
0.000306403
0.000302794
0.00029918
0.000295561
0.00029194
0.000288318
0.000284695
0.000281074
0.000277455
0.00027384
0.000270229
0.000266625
0.000263027
0.000259438
0.000255858
0.000252289
0.000248731
0.000245186
0.000241654
0.000238137
0.000234635
0.00023115
0.000227682
0.000224232
0.000220801
0.00021739
0.000214
0.000210632
0.000207285
0.000203962
0.000200662
0.000197387
0.000194136
0.000190911
0.000187713
0.000184541
0.000181397
0.00017828
0.000175192
0.000172133
0.000169103
0.000166102
0.000163132
0.000160193
0.000157284
0.000154407
0.000151561
0.000148747
0.000145965
0.000143216
0.0001405
0.000137816
0.000135166
0.000132549
0.000129965
0.000127416
0.0001249
0.000122418
0.000119971
0.000117558
0.00011518
0.000112836
0.000110527
0.000108253
0.000106015
0.000103812
0.000101645
9.95133e-05
9.74181e-05
9.53593e-05
9.33373e-05
9.13526e-05
8.94055e-05
8.74966e-05
8.56265e-05
8.37959e-05
8.20056e-05
8.02566e-05
7.85498e-05
7.68867e-05
7.52684e-05
7.36968e-05
7.21736e-05
7.07009e-05
6.92813e-05
6.79174e-05
6.66124e-05
6.53698e-05
6.41937e-05
6.30887e-05
6.206e-05
6.11132e-05
6.02548e-05
5.9492e-05
5.88328e-05
5.82856e-05
5.786e-05
5.75659e-05
5.74136e-05
2.16825e-08
6.95441e-08
1.22237e-07
1.80026e-07
2.43099e-07
3.11613e-07
3.8574e-07
4.65676e-07
5.51649e-07
6.43912e-07
7.42743e-07
8.48438e-07
9.61306e-07
1.08167e-06
1.20985e-06
1.34618e-06
1.49102e-06
1.64469e-06
1.80755e-06
1.97995e-06
2.16224e-06
2.35479e-06
2.55797e-06
2.77213e-06
2.99764e-06
3.23489e-06
3.48426e-06
3.74612e-06
4.02086e-06
4.30887e-06
4.61056e-06
4.92631e-06
5.25653e-06
5.60162e-06
5.962e-06
6.33808e-06
6.73027e-06
7.139e-06
7.56468e-06
8.00775e-06
8.46863e-06
8.94775e-06
9.44555e-06
9.96247e-06
1.04989e-05
1.10554e-05
1.16323e-05
1.22301e-05
1.28492e-05
1.34901e-05
1.41532e-05
1.4839e-05
1.5548e-05
1.62805e-05
1.7037e-05
1.78181e-05
1.86241e-05
1.94554e-05
2.03127e-05
2.11962e-05
2.21065e-05
2.3044e-05
2.40092e-05
2.50025e-05
2.60243e-05
2.70752e-05
2.81554e-05
2.92656e-05
3.04061e-05
3.15773e-05
3.27797e-05
3.40137e-05
3.52798e-05
3.65783e-05
3.79096e-05
3.92742e-05
4.06725e-05
4.21048e-05
4.35715e-05
4.50731e-05
4.66099e-05
4.81822e-05
4.97904e-05
5.14348e-05
5.31159e-05
5.48338e-05
5.6589e-05
5.83817e-05
6.02123e-05
6.20809e-05
6.39879e-05
6.59336e-05
6.79181e-05
6.99417e-05
7.20046e-05
7.4107e-05
7.62491e-05
7.84311e-05
8.0653e-05
8.29151e-05
8.52175e-05
8.75601e-05
8.99432e-05
9.23668e-05
9.48309e-05
9.73355e-05
9.98806e-05
0.000102466
0.000105092
0.000107759
0.000110465
0.000113212
0.000115999
0.000118825
0.000121692
0.000124597
0.000127542
0.000130526
0.000133548
0.000136609
0.000139708
0.000142844
0.000146017
0.000149227
0.000152473
0.000155755
0.000159072
0.000162423
0.000165809
0.000169228
0.00017268
0.000176164
0.000179679
0.000183225
0.000186801
0.000190406
0.000194039
0.0001977
0.000201387
0.0002051
0.000208837
0.000212598
0.000216381
0.000220186
0.000224011
0.000227856
0.000231719
0.0002356
0.000239496
0.000243407
0.000247331
0.000251267
0.000255214
0.000259171
0.000263136
0.000267108
0.000271085
0.000275067
0.000279051
0.000283036
0.000287021
0.000291003
0.000294983
0.000298958
0.000302926
0.000306886
0.000310836
0.000314776
0.000318702
0.000322614
0.00032651
0.000330388
0.000334247
0.000338085
0.0003419
0.000345691
0.000349456
0.000353193
0.000356901
0.000360578
0.000364222
0.000367832
0.000371406
0.000374942
0.000378439
0.000381894
0.000385308
0.000388676
0.000392
0.000395275
0.000398502
0.000401678
0.000404802
0.000407873
0.000410888
0.000413847
0.000416747
0.000419588
0.000422369
0.000425086
0.000427741
0.00043033
0.000432853
0.000435308
0.000437695
0.000440012
0.000442258
0.000444431
0.000446531
0.000448557
0.000450507
0.000452381
0.000454177
0.000455896
0.000457535
0.000459095
0.000460574
0.000461971
0.000463287
0.00046452
0.000465669
0.000466736
0.000467717
0.000468615
0.000469427
0.000470153
0.000470794
0.000471349
0.000471818
0.000472201
0.000472497
0.000472707
0.00047283
0.000472867
0.000472819
0.000472685
0.000472463
0.000472156
0.000471763
0.000471285
0.000470722
0.000470074
0.000469343
0.000468529
0.000467631
0.000466652
0.000465591
0.000464449
0.000463227
0.000461926
0.000460546
0.000459088
0.000457554
0.000455944
0.000454259
0.0004525
0.000450668
0.000448764
0.00044679
0.000444747
0.000442635
0.000440456
0.000438211
0.000435901
0.000433528
0.000431093
0.000428597
0.000426042
0.000423429
0.000420759
0.000418034
0.000415255
0.000412424
0.000409542
0.000406611
0.000403632
0.000400606
0.000397536
0.000394422
0.000391267
0.000388071
0.000384836
0.000381564
0.000378257
0.000374916
0.000371542
0.000368137
0.000364702
0.00036124
0.000357751
0.000354238
0.000350701
0.000347142
0.000343564
0.000339966
0.000336351
0.000332721
0.000329076
0.000325419
0.00032175
0.000318071
0.000314384
0.00031069
0.00030699
0.000303286
0.000299578
0.000295869
0.00029216
0.000288452
0.000284746
0.000281043
0.000277345
0.000273653
0.000269968
0.000266292
0.000262625
0.000258968
0.000255323
0.00025169
0.000248071
0.000244467
0.000240879
0.000237307
0.000233753
0.000230217
0.000226701
0.000223205
0.00021973
0.000216277
0.000212846
0.000209439
0.000206056
0.000202697
0.000199365
0.000196058
0.000192778
0.000189526
0.000186301
0.000183105
0.000179937
0.0001768
0.000173692
0.000170614
0.000167568
0.000164552
0.000161568
0.000158616
0.000155697
0.00015281
0.000149956
0.000147135
0.000144348
0.000141594
0.000138874
0.000136188
0.000133537
0.00013092
0.000128338
0.000125791
0.000123279
0.000120802
0.00011836
0.000115954
0.000113584
0.00011125
0.000108951
0.000106689
0.000104464
0.000102275
0.000100123
9.80082e-05
9.59312e-05
9.38922e-05
9.18918e-05
8.99303e-05
8.80084e-05
8.61269e-05
8.42865e-05
8.24882e-05
8.07329e-05
7.90221e-05
7.7357e-05
7.57394e-05
7.4171e-05
7.2654e-05
7.11908e-05
6.97843e-05
6.84375e-05
6.71541e-05
6.59383e-05
6.47945e-05
6.37281e-05
6.2745e-05
6.18519e-05
6.10562e-05
6.03664e-05
5.97917e-05
5.93425e-05
5.90302e-05
5.88673e-05
2.12873e-08
6.82562e-08
1.19893e-07
1.76493e-07
2.38315e-07
3.0558e-07
3.78503e-07
4.57306e-07
5.4223e-07
6.33536e-07
7.31504e-07
8.36428e-07
9.48615e-07
1.06838e-06
1.19606e-06
1.33198e-06
1.47647e-06
1.6299e-06
1.79259e-06
1.96492e-06
2.14723e-06
2.33989e-06
2.54327e-06
2.75774e-06
2.98367e-06
3.22146e-06
3.47148e-06
3.73412e-06
4.00979e-06
4.29887e-06
4.60177e-06
4.9189e-06
5.25067e-06
5.5975e-06
5.95979e-06
6.33798e-06
6.7325e-06
7.14376e-06
7.57221e-06
8.01828e-06
8.4824e-06
8.96503e-06
9.4666e-06
9.98757e-06
1.05284e-05
1.10895e-05
1.16713e-05
1.22744e-05
1.28991e-05
1.35459e-05
1.42154e-05
1.49078e-05
1.56238e-05
1.63638e-05
1.71281e-05
1.79174e-05
1.87321e-05
1.95726e-05
2.04394e-05
2.13329e-05
2.22537e-05
2.32022e-05
2.41788e-05
2.5184e-05
2.62183e-05
2.72822e-05
2.8376e-05
2.95002e-05
3.06554e-05
3.18418e-05
3.306e-05
3.43104e-05
3.55935e-05
3.69096e-05
3.82592e-05
3.96427e-05
4.10605e-05
4.2513e-05
4.40006e-05
4.55238e-05
4.70828e-05
4.8678e-05
5.03099e-05
5.19787e-05
5.36849e-05
5.54287e-05
5.72105e-05
5.90306e-05
6.08893e-05
6.27868e-05
6.47235e-05
6.66997e-05
6.87155e-05
7.07712e-05
7.2867e-05
7.50032e-05
7.71799e-05
7.93973e-05
8.16555e-05
8.39547e-05
8.6295e-05
8.86766e-05
9.10994e-05
9.35635e-05
9.60691e-05
9.8616e-05
0.000101204
0.000103834
0.000106505
0.000109217
0.000111971
0.000114765
0.000117601
0.000120477
0.000123394
0.000126351
0.000129348
0.000132385
0.000135461
0.000138576
0.000141731
0.000144924
0.000148154
0.000151423
0.000154728
0.00015807
0.000161448
0.000164862
0.00016831
0.000171793
0.000175309
0.000178859
0.00018244
0.000186053
0.000189697
0.00019337
0.000197073
0.000200803
0.000204561
0.000208345
0.000212155
0.000215988
0.000219846
0.000223725
0.000227625
0.000231546
0.000235485
0.000239442
0.000243416
0.000247404
0.000251407
0.000255423
0.000259449
0.000263486
0.000267532
0.000271584
0.000275643
0.000279706
0.000283772
0.000287839
0.000291906
0.000295972
0.000300035
0.000304093
0.000308144
0.000312188
0.000316222
0.000320245
0.000324255
0.000328251
0.000332231
0.000336193
0.000340136
0.000344057
0.000347956
0.00035183
0.000355678
0.000359498
0.000363289
0.000367048
0.000370774
0.000374465
0.00037812
0.000381737
0.000385314
0.000388849
0.000392341
0.000395789
0.00039919
0.000402543
0.000405846
0.000409098
0.000412297
0.000415441
0.00041853
0.000421561
0.000424533
0.000427445
0.000430294
0.000433081
0.000435802
0.000438458
0.000441046
0.000443566
0.000446016
0.000448394
0.0004507
0.000452933
0.000455091
0.000457173
0.000459179
0.000461106
0.000462955
0.000464725
0.000466414
0.000468021
0.000469547
0.000470989
0.000472348
0.000473623
0.000474813
0.000475918
0.000476937
0.000477869
0.000478715
0.000479474
0.000480145
0.000480729
0.000481225
0.000481632
0.000481952
0.000482183
0.000482326
0.000482381
0.000482349
0.00048223
0.000482021
0.000481725
0.000481341
0.00048087
0.000480312
0.000479669
0.000478939
0.000478125
0.000477226
0.000476243
0.000475176
0.000474027
0.000472796
0.000471484
0.000470092
0.00046862
0.00046707
0.000465442
0.000463737
0.000461957
0.000460103
0.000458175
0.000456175
0.000454103
0.000451962
0.000449752
0.000447474
0.00044513
0.000442722
0.00044025
0.000437715
0.00043512
0.000432465
0.000429752
0.000426983
0.000424158
0.00042128
0.00041835
0.000415369
0.000412339
0.000409261
0.000406137
0.000402969
0.000399758
0.000396505
0.000393212
0.000389882
0.000386514
0.000383112
0.000379676
0.000376208
0.00037271
0.000369183
0.000365629
0.000362049
0.000358445
0.000354819
0.000351172
0.000347505
0.000343821
0.00034012
0.000336404
0.000332675
0.000328935
0.000325184
0.000321424
0.000317656
0.000313882
0.000310104
0.000306322
0.000302539
0.000298755
0.000294971
0.00029119
0.000287412
0.000283638
0.000279871
0.00027611
0.000272357
0.000268614
0.000264882
0.000261161
0.000257453
0.000253758
0.000250078
0.000246415
0.000242767
0.000239138
0.000235528
0.000231936
0.000228366
0.000224817
0.00022129
0.000217785
0.000214305
0.000210849
0.000207418
0.000204013
0.000200635
0.000197284
0.00019396
0.000190665
0.000187399
0.000184162
0.000180956
0.00017778
0.000174634
0.00017152
0.000168438
0.000165388
0.00016237
0.000159386
0.000156434
0.000153516
0.000150632
0.000147782
0.000144967
0.000142185
0.000139439
0.000136728
0.000134052
0.000131411
0.000128806
0.000126236
0.000123703
0.000121205
0.000118744
0.000116319
0.000113931
0.000111579
0.000109265
0.000106987
0.000104747
0.000102545
0.000100381
9.82546e-05
9.61673e-05
9.41192e-05
9.21107e-05
9.01426e-05
8.82154e-05
8.63301e-05
8.44875e-05
8.26886e-05
8.09349e-05
7.92275e-05
7.75682e-05
7.59588e-05
7.44014e-05
7.28985e-05
7.14529e-05
7.00677e-05
6.87466e-05
6.74937e-05
6.63137e-05
6.52119e-05
6.41945e-05
6.32682e-05
6.2441e-05
6.17216e-05
6.112e-05
6.06477e-05
6.03176e-05
6.01442e-05
2.09376e-08
6.71124e-08
1.17813e-07
1.73327e-07
2.33953e-07
2.99965e-07
3.71623e-07
4.49189e-07
5.32929e-07
6.2312e-07
7.2005e-07
8.24017e-07
9.3533e-07
1.0543e-06
1.18126e-06
1.31654e-06
1.46046e-06
1.61338e-06
1.77565e-06
1.94761e-06
2.12963e-06
2.32207e-06
2.52531e-06
2.73971e-06
2.96567e-06
3.20356e-06
3.45377e-06
3.71671e-06
3.99277e-06
4.28236e-06
4.58588e-06
4.90376e-06
5.2364e-06
5.58424e-06
5.94769e-06
6.32719e-06
6.72317e-06
7.13607e-06
7.56633e-06
8.0144e-06
8.48072e-06
8.96574e-06
9.46992e-06
9.99371e-06
1.05376e-05
1.1102e-05
1.16873e-05
1.22942e-05
1.2923e-05
1.35741e-05
1.42482e-05
1.49456e-05
1.56667e-05
1.64122e-05
1.71824e-05
1.79779e-05
1.87991e-05
1.96464e-05
2.05205e-05
2.14216e-05
2.23504e-05
2.33072e-05
2.42926e-05
2.5307e-05
2.63509e-05
2.74248e-05
2.85291e-05
2.96642e-05
3.08307e-05
3.2029e-05
3.32595e-05
3.45227e-05
3.58191e-05
3.7149e-05
3.85129e-05
3.99112e-05
4.13444e-05
4.28128e-05
4.43169e-05
4.58571e-05
4.74337e-05
4.90471e-05
5.06977e-05
5.23859e-05
5.4112e-05
5.58764e-05
5.76794e-05
5.95213e-05
6.14024e-05
6.33231e-05
6.52836e-05
6.72841e-05
6.9325e-05
7.14064e-05
7.35287e-05
7.5692e-05
7.78965e-05
8.01424e-05
8.24298e-05
8.47589e-05
8.71299e-05
8.95428e-05
9.19977e-05
9.44946e-05
9.70337e-05
9.96149e-05
0.000102238
0.000104904
0.000107611
0.000110361
0.000113152
0.000115986
0.000118861
0.000121777
0.000124735
0.000127734
0.000130773
0.000133854
0.000136974
0.000140135
0.000143335
0.000146574
0.000149852
0.000153168
0.000156522
0.000159914
0.000163342
0.000166806
0.000170306
0.000173842
0.000177411
0.000181014
0.00018465
0.000188318
0.000192018
0.000195748
0.000199507
0.000203296
0.000207112
0.000210956
0.000214825
0.000218719
0.000222637
0.000226578
0.000230541
0.000234524
0.000238527
0.000242548
0.000246586
0.00025064
0.000254708
0.000258789
0.000262882
0.000266986
0.000271098
0.000275219
0.000279345
0.000283476
0.000287611
0.000291747
0.000295884
0.000300019
0.000304151
0.000308279
0.000312401
0.000316515
0.000320619
0.000324713
0.000328794
0.000332861
0.000336911
0.000340944
0.000344958
0.00034895
0.000352919
0.000356864
0.000360782
0.000364673
0.000368533
0.000372362
0.000376158
0.000379919
0.000383642
0.000387328
0.000390973
0.000394576
0.000398136
0.000401651
0.000405118
0.000408537
0.000411906
0.000415223
0.000418486
0.000421694
0.000424846
0.000427939
0.000430973
0.000433946
0.000436856
0.000439701
0.000442481
0.000445195
0.00044784
0.000450415
0.000452919
0.000455352
0.000457711
0.000459995
0.000462204
0.000464335
0.00046639
0.000468365
0.00047026
0.000472074
0.000473807
0.000475457
0.000477024
0.000478507
0.000479905
0.000481217
0.000482444
0.000483583
0.000484636
0.0004856
0.000486477
0.000487265
0.000487964
0.000488574
0.000489095
0.000489526
0.000489868
0.00049012
0.000490282
0.000490354
0.000490338
0.000490235
0.000490039
0.000489754
0.00048938
0.000488918
0.000488367
0.000487729
0.000487004
0.000486192
0.000485294
0.00048431
0.000483242
0.000482089
0.000480853
0.000479534
0.000478134
0.000476652
0.000475091
0.00047345
0.000471732
0.000469936
0.000468065
0.000466119
0.000464098
0.000462006
0.000459842
0.000457608
0.000455305
0.000452934
0.000450498
0.000447996
0.000445431
0.000442804
0.000440116
0.000437369
0.000434564
0.000431703
0.000428786
0.000425817
0.000422796
0.000419724
0.000416604
0.000413437
0.000410224
0.000406967
0.000403668
0.000400328
0.000396949
0.000393533
0.00039008
0.000386593
0.000383074
0.000379523
0.000375943
0.000372334
0.0003687
0.000365041
0.000361358
0.000357654
0.00035393
0.000350188
0.000346429
0.000342654
0.000338866
0.000335065
0.000331253
0.000327432
0.000323603
0.000319768
0.000315928
0.000312084
0.000308238
0.000304391
0.000300545
0.0002967
0.000292859
0.000289022
0.000285191
0.000281366
0.00027755
0.000273743
0.000269946
0.000266162
0.000262389
0.000258631
0.000254888
0.00025116
0.000247449
0.000243757
0.000240083
0.000236428
0.000232795
0.000229183
0.000225593
0.000222027
0.000218484
0.000214966
0.000211474
0.000208008
0.000204569
0.000201157
0.000197773
0.000194418
0.000191093
0.000187797
0.000184532
0.000181297
0.000178094
0.000174923
0.000171784
0.000168677
0.000165604
0.000162564
0.000159557
0.000156585
0.000153647
0.000150743
0.000147875
0.000145041
0.000142243
0.00013948
0.000136754
0.000134063
0.000131408
0.000128789
0.000126207
0.000123662
0.000121153
0.000118681
0.000116247
0.00011385
0.00011149
0.000109168
0.000106884
0.000104639
0.000102431
0.000100263
9.81343e-05
9.60451e-05
9.39961e-05
9.1988e-05
9.00215e-05
8.80972e-05
8.62163e-05
8.43797e-05
8.25886e-05
8.08444e-05
7.91488e-05
7.75036e-05
7.59109e-05
7.43732e-05
7.28932e-05
7.14741e-05
7.01196e-05
6.88338e-05
6.76215e-05
6.6488e-05
6.54396e-05
6.44834e-05
6.36275e-05
6.28811e-05
6.22548e-05
6.17612e-05
6.14146e-05
6.12314e-05
2.06447e-08
6.61539e-08
1.16071e-07
1.70668e-07
2.30258e-07
2.95148e-07
3.65642e-07
4.42038e-07
5.24631e-07
6.1372e-07
7.09606e-07
8.12595e-07
9.22997e-07
1.04113e-06
1.16731e-06
1.30187e-06
1.44514e-06
1.59746e-06
1.75918e-06
1.93066e-06
2.11224e-06
2.30431e-06
2.50722e-06
2.72136e-06
2.9471e-06
3.18485e-06
3.43499e-06
3.69792e-06
3.97405e-06
4.26379e-06
4.56755e-06
4.88575e-06
5.21881e-06
5.56717e-06
5.93126e-06
6.3115e-06
6.70835e-06
7.12225e-06
7.55364e-06
8.00297e-06
8.4707e-06
8.95729e-06
9.4632e-06
9.98888e-06
1.05348e-05
1.11015e-05
1.16893e-05
1.22988e-05
1.29304e-05
1.35846e-05
1.42619e-05
1.49628e-05
1.56877e-05
1.64371e-05
1.72116e-05
1.80115e-05
1.88375e-05
1.96898e-05
2.05691e-05
2.14759e-05
2.24105e-05
2.33735e-05
2.43654e-05
2.53867e-05
2.64377e-05
2.7519e-05
2.86311e-05