/*--------------------------------*- C++ -*----------------------------------*\
  =========                 |
  \\      /  F ield         | OpenFOAM: The Open Source CFD Toolbox
   \\    /   O peration     | Website:  https://openfoam.org
    \\  /    A nd           | Version:  dev
     \\/     M anipulation  |
\*---------------------------------------------------------------------------*/
FoamFile
{
    format      ascii;
    class       volScalarField;
    location    "0.86";
    object      Exp1;
}
// * * * * * * * * * * * * * * * * * * * * * * * * * * * * * * * * * * * * * //

dimensions      [0 0 0 0 0 0 0];

internalField   uniform 0;

boundaryField
{
    frontAndBack
    {
        type            empty;
    }
    inlet
    {
        type            calculated;
        value           uniform 0;
    }
    outlet
    {
        type            calculated;
        value           uniform 0;
    }
    substrate
    {
        type            calculated;
        value           nonuniform List<scalar> 
400
(
1.99028e-21
6.33912e-21
1.11236e-20
1.63237e-20
2.19428e-20
2.80006e-20
3.45162e-20
4.15095e-20
4.90029e-20
5.7021e-20
6.55896e-20
7.4736e-20
8.44883e-20
9.48757e-20
1.05928e-19
1.17676e-19
1.30151e-19
1.43383e-19
1.57406e-19
1.72252e-19
1.87955e-19
2.04547e-19
2.22064e-19
2.40541e-19
2.60013e-19
2.80517e-19
3.0209e-19
3.2477e-19
3.48597e-19
3.73609e-19
3.99848e-19
4.27355e-19
4.56173e-19
4.86345e-19
5.17917e-19
5.50933e-19
5.8544e-19
6.21487e-19
6.59122e-19
6.98396e-19
7.3936e-19
7.82067e-19
8.26572e-19
8.72929e-19
9.21197e-19
9.71432e-19
1.0237e-18
1.07805e-18
1.13456e-18
1.19328e-18
1.25429e-18
1.31765e-18
1.38343e-18
1.45171e-18
1.52255e-18
1.59604e-18
1.67225e-18
1.75126e-18
1.83315e-18
1.91802e-18
2.00594e-18
2.097e-18
2.1913e-18
2.28893e-18
2.38999e-18
2.49458e-18
2.60279e-18
2.71475e-18
2.83054e-18
2.95029e-18
3.07411e-18
3.20211e-18
3.33442e-18
3.47117e-18
3.61248e-18
3.75848e-18
3.90931e-18
4.0651e-18
4.22601e-18
4.39218e-18
4.56375e-18
4.7409e-18
4.92377e-18
5.11254e-18
5.30737e-18
5.50844e-18
5.71592e-18
5.93001e-18
6.1509e-18
6.37878e-18
6.61384e-18
6.85631e-18
7.10639e-18
7.36431e-18
7.63028e-18
7.90454e-18
8.18734e-18
8.47891e-18
8.77952e-18
9.08941e-18
9.40886e-18
9.73815e-18
1.00776e-17
1.04274e-17
1.07879e-17
1.11594e-17
1.15423e-17
1.19369e-17
1.23434e-17
1.27623e-17
1.31939e-17
1.36386e-17
1.40967e-17
1.45686e-17
1.50547e-17
1.55555e-17
1.60714e-17
1.66027e-17
1.715e-17
1.77137e-17
1.82942e-17
1.88921e-17
1.95079e-17
2.0142e-17
2.0795e-17
2.14674e-17
2.21598e-17
2.28728e-17
2.36069e-17
2.43627e-17
2.5141e-17
2.59423e-17
2.67672e-17
2.76165e-17
2.84908e-17
2.93909e-17
3.03175e-17
3.12714e-17
3.22533e-17
3.3264e-17
3.43043e-17
3.53752e-17
3.64774e-17
3.76119e-17
3.87796e-17
3.99813e-17
4.12182e-17
4.24911e-17
4.38011e-17
4.51493e-17
4.65367e-17
4.79645e-17
4.94337e-17
5.09456e-17
5.25013e-17
5.41022e-17
5.57494e-17
5.74443e-17
5.91882e-17
6.09825e-17
6.28286e-17
6.47279e-17
6.66821e-17
6.86925e-17
7.07608e-17
7.28886e-17
7.50776e-17
7.73295e-17
7.9646e-17
8.20289e-17
8.44801e-17
8.70015e-17
8.9595e-17
9.22627e-17
9.50066e-17
9.78288e-17
1.00732e-16
1.03717e-16
1.06788e-16
1.09945e-16
1.13193e-16
1.16533e-16
1.19968e-16
1.235e-16
1.27132e-16
1.30867e-16
1.34708e-16
1.38658e-16
1.42719e-16
1.46894e-16
1.51188e-16
1.55602e-16
1.60141e-16
1.64807e-16
1.69605e-16
1.74537e-16
1.79608e-16
1.84821e-16
1.9018e-16
1.95688e-16
2.01351e-16
2.07172e-16
2.13156e-16
2.19306e-16
2.25628e-16
2.32126e-16
2.38804e-16
2.45668e-16
2.52722e-16
2.59973e-16
2.67423e-16
2.75081e-16
2.82949e-16
2.91036e-16
2.99345e-16
3.07884e-16
3.16657e-16
3.25672e-16
3.34935e-16
3.44452e-16
3.5423e-16
3.64277e-16
3.74598e-16
3.85201e-16
3.96094e-16
4.07284e-16
4.18779e-16
4.30588e-16
4.42717e-16
4.55176e-16
4.67973e-16
4.81117e-16
4.94617e-16
5.08482e-16
5.22722e-16
5.37345e-16
5.52363e-16
5.67786e-16
5.83623e-16
5.99885e-16
6.16584e-16
6.3373e-16
6.51335e-16
6.69411e-16
6.87969e-16
7.07022e-16
7.26583e-16
7.46663e-16
7.67278e-16
7.88439e-16
8.1016e-16
8.32457e-16
8.55343e-16
8.78833e-16
9.02942e-16
9.27685e-16
9.5308e-16
9.7914e-16
1.00588e-15
1.03333e-15
1.06149e-15
1.09039e-15
1.12004e-15
1.15046e-15
1.18167e-15
1.2137e-15
1.24655e-15
1.28026e-15
1.31483e-15
1.3503e-15
1.38668e-15
1.424e-15
1.46228e-15
1.50154e-15
1.5418e-15
1.58309e-15
1.62544e-15
1.66887e-15
1.71341e-15
1.75907e-15
1.80589e-15
1.8539e-15
1.90313e-15
1.95359e-15
2.00533e-15
2.05837e-15
2.11274e-15
2.16848e-15
2.22561e-15
2.28417e-15
2.34419e-15
2.4057e-15
2.46874e-15
2.53334e-15
2.59954e-15
2.66738e-15
2.73689e-15
2.80811e-15
2.88109e-15
2.95585e-15
3.03243e-15
3.11089e-15
3.19126e-15
3.27359e-15
3.35791e-15
3.44427e-15
3.53271e-15
3.62329e-15
3.71605e-15
3.81103e-15
3.90828e-15
4.00785e-15
4.10979e-15
4.21416e-15
4.32099e-15
4.43035e-15
4.54228e-15
4.65684e-15
4.77409e-15
4.89407e-15
5.01684e-15
5.14247e-15
5.271e-15
5.40249e-15
5.537e-15
5.67459e-15
5.81532e-15
5.95925e-15
6.10643e-15
6.25693e-15
6.41081e-15
6.56813e-15
6.72895e-15
6.89332e-15
7.06132e-15
7.23299e-15
7.40841e-15
7.58762e-15
7.7707e-15
7.95769e-15
8.14866e-15
8.34366e-15
8.54275e-15
8.74598e-15
8.95339e-15
9.16505e-15
9.381e-15
9.60128e-15
9.82593e-15
1.0055e-14
1.02885e-14
1.05265e-14
1.0769e-14
1.1016e-14
1.12675e-14
1.15235e-14
1.17841e-14
1.20492e-14
1.23188e-14
1.25929e-14
1.28714e-14
1.31543e-14
1.34415e-14
1.3733e-14
1.40286e-14
1.43281e-14
1.46316e-14
1.49388e-14
1.52495e-14
1.55636e-14
1.58808e-14
1.62008e-14
1.65233e-14
1.68481e-14
1.71747e-14
1.75027e-14
1.78317e-14
1.8161e-14
1.84903e-14
1.88188e-14
1.91458e-14
1.94705e-14
1.97922e-14
2.01098e-14
2.04224e-14
2.07288e-14
2.10278e-14
2.13181e-14
2.15982e-14
2.18664e-14
2.21212e-14
2.23605e-14
2.25825e-14
2.27849e-14
2.29654e-14
2.31218e-14
2.32514e-14
2.33519e-14
2.34208e-14
2.34561e-14
)
;
    }
    Wall
    {
        type            calculated;
        value           nonuniform List<scalar> 
400
(
1.99024e-21
6.339e-21
1.11234e-20
1.63233e-20
2.19423e-20
2.8e-20
3.45153e-20
4.15083e-20
4.90015e-20
5.70193e-20
6.55875e-20
7.47334e-20
8.44853e-20
9.48723e-20
1.05924e-19
1.17672e-19
1.30145e-19
1.43378e-19
1.574e-19
1.72245e-19
1.87947e-19
2.04539e-19
2.22055e-19
2.40531e-19
2.60002e-19
2.80505e-19
3.02077e-19
3.24757e-19
3.48582e-19
3.73594e-19
3.99832e-19
4.27338e-19
4.56156e-19
4.86327e-19
5.17897e-19
5.50912e-19
5.85418e-19
6.21464e-19
6.59098e-19
6.98371e-19
7.39334e-19
7.8204e-19
8.26543e-19
8.72899e-19
9.21165e-19
9.71399e-19
1.02366e-18
1.07801e-18
1.13452e-18
1.19324e-18
1.25425e-18
1.3176e-18
1.38338e-18
1.45166e-18
1.5225e-18
1.59599e-18
1.67219e-18
1.7512e-18
1.8331e-18
1.91796e-18
2.00587e-18
2.09694e-18
2.19123e-18
2.28886e-18
2.38992e-18
2.4945e-18
2.60272e-18
2.71466e-18
2.83045e-18
2.9502e-18
3.07401e-18
3.20202e-18
3.33433e-18
3.47107e-18
3.61237e-18
3.75837e-18
3.90919e-18
4.06498e-18
4.22589e-18
4.39205e-18
4.56362e-18
4.74076e-18
4.92363e-18
5.11239e-18
5.30722e-18
5.50828e-18
5.71576e-18
5.92985e-18
6.15073e-18
6.3786e-18
6.61366e-18
6.85612e-18
7.10619e-18
7.3641e-18
7.63006e-18
7.90432e-18
8.18711e-18
8.47867e-18
8.77927e-18
9.08915e-18
9.4086e-18
9.73787e-18
1.00773e-17
1.04271e-17
1.07876e-17
1.11591e-17
1.1542e-17
1.19365e-17
1.23431e-17
1.2762e-17
1.31935e-17
1.36382e-17
1.40963e-17
1.45682e-17
1.50543e-17
1.55551e-17
1.6071e-17
1.66023e-17
1.71496e-17
1.77132e-17
1.82937e-17
1.88916e-17
1.95073e-17
2.01414e-17
2.07944e-17
2.14668e-17
2.21592e-17
2.28721e-17
2.36062e-17
2.43621e-17
2.51403e-17
2.59416e-17
2.67665e-17
2.76157e-17
2.849e-17
2.93901e-17
3.03167e-17
3.12705e-17
3.22524e-17
3.32631e-17
3.43034e-17
3.53743e-17
3.64765e-17
3.76109e-17
3.87785e-17
3.99803e-17
4.12171e-17
4.249e-17
4.38e-17
4.51481e-17
4.65355e-17
4.79632e-17
4.94324e-17
5.09443e-17
5.25e-17
5.41008e-17
5.57479e-17
5.74428e-17
5.91866e-17
6.09809e-17
6.28269e-17
6.47263e-17
6.66803e-17
6.86907e-17
7.0759e-17
7.28867e-17
7.50757e-17
7.73275e-17
7.96439e-17
8.20267e-17
8.44779e-17
8.69992e-17
8.95927e-17
9.22603e-17
9.50041e-17
9.78263e-17
1.00729e-16
1.03714e-16
1.06785e-16
1.09943e-16
1.1319e-16
1.1653e-16
1.19965e-16
1.23497e-16
1.27129e-16
1.30864e-16
1.34705e-16
1.38654e-16
1.42715e-16
1.46891e-16
1.51184e-16
1.55598e-16
1.60137e-16
1.64803e-16
1.696e-16
1.74533e-16
1.79603e-16
1.84816e-16
1.90175e-16
1.95683e-16
2.01346e-16
2.07167e-16
2.1315e-16
2.19301e-16
2.25622e-16
2.3212e-16
2.38798e-16
2.45662e-16
2.52716e-16
2.59966e-16
2.67417e-16
2.75074e-16
2.82942e-16
2.91028e-16
2.99337e-16
3.07876e-16
3.16649e-16
3.25664e-16
3.34926e-16
3.44443e-16
3.54221e-16
3.64267e-16
3.74588e-16
3.85191e-16
3.96084e-16
4.07274e-16
4.18769e-16
4.30577e-16
4.42706e-16
4.55164e-16
4.67961e-16
4.81105e-16
4.94604e-16
5.08469e-16
5.22708e-16
5.37332e-16
5.52349e-16
5.67771e-16
5.83608e-16
5.9987e-16
6.16568e-16
6.33714e-16
6.51319e-16
6.69394e-16
6.87951e-16
7.07004e-16
7.26564e-16
7.46644e-16
7.67258e-16
7.88418e-16
8.1014e-16
8.32436e-16
8.55321e-16
8.7881e-16
9.02919e-16
9.27662e-16
9.53055e-16
9.79116e-16
1.00586e-15
1.0333e-15
1.06146e-15
1.09036e-15
1.12001e-15
1.15043e-15
1.18164e-15
1.21367e-15
1.24652e-15
1.28022e-15
1.3148e-15
1.35027e-15
1.38665e-15
1.42396e-15
1.46224e-15
1.5015e-15
1.54176e-15
1.58305e-15
1.6254e-15
1.66883e-15
1.71336e-15
1.75903e-15
1.80585e-15
1.85386e-15
1.90308e-15
1.95354e-15
2.00528e-15
2.05832e-15
2.11269e-15
2.16842e-15
2.22555e-15
2.28411e-15
2.34412e-15
2.40563e-15
2.46867e-15
2.53328e-15
2.59948e-15
2.66731e-15
2.73682e-15
2.80804e-15
2.88101e-15
2.95577e-15
3.03236e-15
3.11081e-15
3.19118e-15
3.2735e-15
3.35782e-15
3.44418e-15
3.53262e-15
3.6232e-15
3.71595e-15
3.81093e-15
3.90818e-15
4.00775e-15
4.10969e-15
4.21405e-15
4.32088e-15
4.43024e-15
4.54217e-15
4.65673e-15
4.77397e-15
4.89395e-15
5.01672e-15
5.14234e-15
5.27087e-15
5.40236e-15
5.53687e-15
5.67445e-15
5.81518e-15
5.9591e-15
6.10628e-15
6.25678e-15
6.41066e-15
6.56797e-15
6.72878e-15
6.89315e-15
7.06114e-15
7.23282e-15
7.40823e-15
7.58744e-15
7.77051e-15
7.9575e-15
8.14847e-15
8.34346e-15
8.54255e-15
8.74577e-15
8.95318e-15
9.16484e-15
9.38078e-15
9.60105e-15
9.8257e-15
1.00548e-14
1.02883e-14
1.05262e-14
1.07687e-14
1.10157e-14
1.12672e-14
1.15233e-14
1.17838e-14
1.20489e-14
1.23186e-14
1.25926e-14
1.28711e-14
1.3154e-14
1.34412e-14
1.37327e-14
1.40282e-14
1.43278e-14
1.46313e-14
1.49385e-14
1.52492e-14
1.55633e-14
1.58804e-14
1.62004e-14
1.6523e-14
1.68477e-14
1.71743e-14
1.75023e-14
1.78313e-14
1.81606e-14
1.84899e-14
1.88184e-14
1.91454e-14
1.94701e-14
1.97918e-14
2.01094e-14
2.0422e-14
2.07284e-14
2.10274e-14
2.13177e-14
2.15978e-14
2.1866e-14
2.21208e-14
2.23601e-14
2.25821e-14
2.27844e-14
2.2965e-14
2.31213e-14
2.3251e-14
2.33515e-14
2.34205e-14
2.34558e-14
)
;
    }
}


// ************************************************************************* //
