/*--------------------------------*- C++ -*----------------------------------*\
  =========                 |
  \\      /  F ield         | OpenFOAM: The Open Source CFD Toolbox
   \\    /   O peration     | Website:  https://openfoam.org
    \\  /    A nd           | Version:  dev
     \\/     M anipulation  |
\*---------------------------------------------------------------------------*/
FoamFile
{
    format      ascii;
    class       volScalarField;
    location    "0.86";
    object      N1;
}
// * * * * * * * * * * * * * * * * * * * * * * * * * * * * * * * * * * * * * //

dimensions      [0 0 0 0 0 0 0];

internalField   nonuniform List<scalar> 
8000
(
1.51111e-20
4.81416e-20
8.44923e-20
1.24012e-19
1.66727e-19
2.12788e-19
2.6234e-19
3.15537e-19
3.72551e-19
4.33568e-19
4.98788e-19
5.68418e-19
6.42676e-19
7.21784e-19
8.05973e-19
8.95476e-19
9.90531e-19
1.09138e-18
1.19828e-18
1.31146e-18
1.4312e-18
1.55775e-18
1.69137e-18
1.83233e-18
1.98092e-18
2.1374e-18
2.30207e-18
2.47523e-18
2.65716e-18
2.84818e-18
3.0486e-18
3.25874e-18
3.47893e-18
3.7095e-18
3.9508e-18
4.20318e-18
4.467e-18
4.74263e-18
5.03044e-18
5.33083e-18
5.6442e-18
5.97094e-18
6.31148e-18
6.66625e-18
7.03568e-18
7.42022e-18
7.82034e-18
8.23651e-18
8.66922e-18
9.11896e-18
9.58625e-18
1.00716e-17
1.05756e-17
1.10987e-17
1.16416e-17
1.22048e-17
1.27889e-17
1.33945e-17
1.40224e-17
1.4673e-17
1.53471e-17
1.60454e-17
1.67686e-17
1.75174e-17
1.82925e-17
1.90948e-17
1.99249e-17
2.07838e-17
2.16723e-17
2.25911e-17
2.35413e-17
2.45236e-17
2.55391e-17
2.65887e-17
2.76734e-17
2.87941e-17
2.9952e-17
3.11481e-17
3.23835e-17
3.36593e-17
3.49768e-17
3.63371e-17
3.77414e-17
3.91911e-17
4.06874e-17
4.22317e-17
4.38254e-17
4.54698e-17
4.71666e-17
4.89171e-17
5.07229e-17
5.25856e-17
5.45069e-17
5.64884e-17
5.85319e-17
6.06392e-17
6.28122e-17
6.50526e-17
6.73625e-17
6.97438e-17
7.21987e-17
7.47292e-17
7.73376e-17
8.0026e-17
8.27968e-17
8.56524e-17
8.85951e-17
9.16276e-17
9.47523e-17
9.7972e-17
1.01289e-16
1.04707e-16
1.08229e-16
1.11856e-16
1.15593e-16
1.19443e-16
1.23409e-16
1.27493e-16
1.31701e-16
1.36034e-16
1.40497e-16
1.45093e-16
1.49827e-16
1.54702e-16
1.59723e-16
1.64892e-16
1.70216e-16
1.75697e-16
1.81341e-16
1.87153e-16
1.93137e-16
1.99297e-16
2.0564e-16
2.1217e-16
2.18893e-16
2.25814e-16
2.32938e-16
2.40273e-16
2.47823e-16
2.55594e-16
2.63594e-16
2.71828e-16
2.80303e-16
2.89027e-16
2.98006e-16
3.07247e-16
3.16757e-16
3.26546e-16
3.36619e-16
3.46986e-16
3.57655e-16
3.68634e-16
3.79932e-16
3.91558e-16
4.03522e-16
4.15832e-16
4.28499e-16
4.41533e-16
4.54943e-16
4.68741e-16
4.82938e-16
4.97544e-16
5.12572e-16
5.28032e-16
5.43938e-16
5.60301e-16
5.77135e-16
5.94452e-16
6.12266e-16
6.30591e-16
6.49442e-16
6.68832e-16
6.88777e-16
7.09292e-16
7.30394e-16
7.52098e-16
7.74421e-16
7.9738e-16
8.20994e-16
8.45279e-16
8.70255e-16
8.9594e-16
9.22355e-16
9.49519e-16
9.77453e-16
1.00618e-15
1.03572e-15
1.06609e-15
1.09732e-15
1.12943e-15
1.16245e-15
1.1964e-15
1.23131e-15
1.26719e-15
1.30409e-15
1.34202e-15
1.38102e-15
1.42111e-15
1.46232e-15
1.50469e-15
1.54824e-15
1.59301e-15
1.63902e-15
1.68633e-15
1.73494e-15
1.78491e-15
1.83628e-15
1.88906e-15
1.94332e-15
1.99908e-15
2.05638e-15
2.11527e-15
2.17578e-15
2.23797e-15
2.30188e-15
2.36754e-15
2.43502e-15
2.50435e-15
2.57559e-15
2.64878e-15
2.72399e-15
2.80125e-15
2.88062e-15
2.96217e-15
3.04595e-15
3.13201e-15
3.22042e-15
3.31123e-15
3.40451e-15
3.50033e-15
3.59875e-15
3.69984e-15
3.80366e-15
3.9103e-15
4.01981e-15
4.13228e-15
4.24778e-15
4.36639e-15
4.48819e-15
4.61326e-15
4.74169e-15
4.87355e-15
5.00895e-15
5.14797e-15
5.29069e-15
5.43723e-15
5.58766e-15
5.7421e-15
5.90064e-15
6.06338e-15
6.23044e-15
6.40192e-15
6.57793e-15
6.75859e-15
6.94401e-15
7.13431e-15
7.32961e-15
7.53004e-15
7.73572e-15
7.94679e-15
8.16338e-15
8.38562e-15
8.61366e-15
8.84763e-15
9.08769e-15
9.33398e-15
9.58665e-15
9.84586e-15
1.01118e-14
1.03846e-14
1.06644e-14
1.09514e-14
1.12458e-14
1.15477e-14
1.18574e-14
1.21749e-14
1.25006e-14
1.28346e-14
1.31771e-14
1.35283e-14
1.38885e-14
1.42577e-14
1.46363e-14
1.50244e-14
1.54223e-14
1.58302e-14
1.62484e-14
1.6677e-14
1.71164e-14
1.75668e-14
1.80284e-14
1.85014e-14
1.89863e-14
1.94831e-14
1.99923e-14
2.0514e-14
2.10486e-14
2.15964e-14
2.21576e-14
2.27325e-14
2.33216e-14
2.3925e-14
2.45431e-14
2.51762e-14
2.58247e-14
2.64889e-14
2.71692e-14
2.78658e-14
2.85791e-14
2.93096e-14
3.00576e-14
3.08234e-14
3.16074e-14
3.241e-14
3.32317e-14
3.40727e-14
3.49336e-14
3.58147e-14
3.67164e-14
3.76391e-14
3.85834e-14
3.95495e-14
4.0538e-14
4.15493e-14
4.25838e-14
4.3642e-14
4.47244e-14
4.58313e-14
4.69632e-14
4.81207e-14
4.93042e-14
5.05141e-14
5.17509e-14
5.30151e-14
5.43071e-14
5.56274e-14
5.69765e-14
5.83549e-14
5.97629e-14
6.1201e-14
6.26697e-14
6.41694e-14
6.57006e-14
6.72636e-14
6.88588e-14
7.04866e-14
7.21474e-14
7.38416e-14
7.55693e-14
7.7331e-14
7.91269e-14
8.09572e-14
8.2822e-14
8.47216e-14
8.6656e-14
8.86253e-14
9.06295e-14
9.26684e-14
9.4742e-14
9.68499e-14
9.89919e-14
1.01168e-13
1.03377e-13
1.05618e-13
1.07891e-13
1.10195e-13
1.12529e-13
1.14892e-13
1.17281e-13
1.19697e-13
1.22136e-13
1.24597e-13
1.27078e-13
1.29576e-13
1.32088e-13
1.3461e-13
1.3714e-13
1.39673e-13
1.42206e-13
1.44732e-13
1.47247e-13
1.49744e-13
1.52218e-13
1.54661e-13
1.57065e-13
1.59422e-13
1.61722e-13
1.63954e-13
1.66108e-13
1.68171e-13
1.7013e-13
1.71971e-13
1.73678e-13
1.75235e-13
1.76623e-13
1.77826e-13
1.78823e-13
1.79596e-13
1.80126e-13
1.80397e-13
1.4803e-20
4.74554e-20
8.34993e-20
1.22884e-19
1.65606e-19
2.11765e-19
2.61491e-19
3.14929e-19
3.7225e-19
4.33641e-19
4.99303e-19
5.69449e-19
6.44298e-19
7.2408e-19
8.09029e-19
8.99384e-19
9.95391e-19
1.0973e-18
1.20536e-18
1.31983e-18
1.44098e-18
1.56907e-18
1.70437e-18
1.84717e-18
1.99774e-18
2.15638e-18
2.32338e-18
2.49904e-18
2.68368e-18
2.87761e-18
3.08115e-18
3.29463e-18
3.51839e-18
3.75279e-18
3.99817e-18
4.25489e-18
4.52334e-18
4.80388e-18
5.09692e-18
5.40286e-18
5.72209e-18
6.05506e-18
6.40217e-18
6.76389e-18
7.14066e-18
7.53294e-18
7.94122e-18
8.36599e-18
8.80773e-18
9.26698e-18
9.74426e-18
1.02401e-17
1.07551e-17
1.12898e-17
1.18448e-17
1.24206e-17
1.3018e-17
1.36375e-17
1.42799e-17
1.49457e-17
1.56356e-17
1.63505e-17
1.70909e-17
1.78577e-17
1.86516e-17
1.94735e-17
2.0324e-17
2.12041e-17
2.21147e-17
2.30565e-17
2.40306e-17
2.50378e-17
2.60791e-17
2.71555e-17
2.8268e-17
2.94177e-17
3.06056e-17
3.18329e-17
3.31007e-17
3.44101e-17
3.57623e-17
3.71587e-17
3.86004e-17
4.00888e-17
4.16252e-17
4.3211e-17
4.48477e-17
4.65367e-17
4.82795e-17
5.00777e-17
5.19328e-17
5.38466e-17
5.58207e-17
5.78568e-17
5.99568e-17
6.21224e-17
6.43556e-17
6.66584e-17
6.90326e-17
7.14805e-17
7.40041e-17
7.66056e-17
7.92872e-17
8.20513e-17
8.49002e-17
8.78365e-17
9.08625e-17
9.39809e-17
9.71943e-17
1.00506e-16
1.03917e-16
1.07433e-16
1.11054e-16
1.14786e-16
1.1863e-16
1.2259e-16
1.26669e-16
1.30871e-16
1.35199e-16
1.39657e-16
1.44249e-16
1.48978e-16
1.53848e-16
1.58864e-16
1.64029e-16
1.69349e-16
1.74826e-16
1.80467e-16
1.86275e-16
1.92255e-16
1.98412e-16
2.04752e-16
2.11279e-16
2.17999e-16
2.24918e-16
2.3204e-16
2.39373e-16
2.46921e-16
2.54691e-16
2.6269e-16
2.70923e-16
2.79398e-16
2.88121e-16
2.971e-16
3.06341e-16
3.15853e-16
3.25643e-16
3.35718e-16
3.46087e-16
3.56758e-16
3.6774e-16
3.79041e-16
3.90671e-16
4.02638e-16
4.14953e-16
4.27626e-16
4.40665e-16
4.54082e-16
4.67887e-16
4.82091e-16
4.96706e-16
5.11742e-16
5.27212e-16
5.43128e-16
5.59502e-16
5.76348e-16
5.93678e-16
6.11506e-16
6.29845e-16
6.48711e-16
6.68118e-16
6.8808e-16
7.08614e-16
7.29735e-16
7.5146e-16
7.73805e-16
7.96788e-16
8.20426e-16
8.44737e-16
8.6974e-16
8.95454e-16
9.21899e-16
9.49095e-16
9.77063e-16
1.00582e-15
1.0354e-15
1.06581e-15
1.09708e-15
1.12924e-15
1.1623e-15
1.1963e-15
1.23125e-15
1.26719e-15
1.30414e-15
1.34213e-15
1.38119e-15
1.42134e-15
1.46262e-15
1.50506e-15
1.54868e-15
1.59352e-15
1.63962e-15
1.687e-15
1.7357e-15
1.78576e-15
1.83722e-15
1.8901e-15
1.94446e-15
2.00032e-15
2.05773e-15
2.11674e-15
2.17738e-15
2.23969e-15
2.30373e-15
2.36953e-15
2.43715e-15
2.50663e-15
2.57802e-15
2.65137e-15
2.72674e-15
2.80418e-15
2.88374e-15
2.96548e-15
3.04945e-15
3.13572e-15
3.22434e-15
3.31537e-15
3.40889e-15
3.50495e-15
3.60362e-15
3.70497e-15
3.80906e-15
3.91598e-15
4.02579e-15
4.13856e-15
4.25438e-15
4.37332e-15
4.49546e-15
4.62089e-15
4.74968e-15
4.88194e-15
5.01773e-15
5.15716e-15
5.30032e-15
5.4473e-15
5.5982e-15
5.75313e-15
5.91217e-15
6.07543e-15
6.24303e-15
6.41507e-15
6.59167e-15
6.77293e-15
6.95897e-15
7.14992e-15
7.3459e-15
7.54703e-15
7.75344e-15
7.96527e-15
8.18264e-15
8.40569e-15
8.63457e-15
8.86942e-15
9.11038e-15
9.35761e-15
9.61126e-15
9.87148e-15
1.01384e-14
1.04123e-14
1.06932e-14
1.09814e-14
1.1277e-14
1.15802e-14
1.18911e-14
1.22101e-14
1.25372e-14
1.28726e-14
1.32166e-14
1.35693e-14
1.3931e-14
1.43019e-14
1.46822e-14
1.50721e-14
1.54719e-14
1.58817e-14
1.63018e-14
1.67325e-14
1.7174e-14
1.76266e-14
1.80904e-14
1.85658e-14
1.90531e-14
1.95525e-14
2.00642e-14
2.05886e-14
2.1126e-14
2.16766e-14
2.22408e-14
2.28189e-14
2.34111e-14
2.40178e-14
2.46393e-14
2.5276e-14
2.59281e-14
2.65961e-14
2.72802e-14
2.79809e-14
2.86985e-14
2.94333e-14
3.01857e-14
3.09561e-14
3.17449e-14
3.25525e-14
3.33793e-14
3.42257e-14
3.5092e-14
3.59788e-14
3.68864e-14
3.78152e-14
3.87658e-14
3.97385e-14
4.07337e-14
4.1752e-14
4.27937e-14
4.38594e-14
4.49495e-14
4.60645e-14
4.72048e-14
4.83709e-14
4.95634e-14
5.07825e-14
5.2029e-14
5.33031e-14
5.46055e-14
5.59366e-14
5.72968e-14
5.86867e-14
6.01068e-14
6.15574e-14
6.30391e-14
6.45523e-14
6.60975e-14
6.7675e-14
6.92854e-14
7.0929e-14
7.26063e-14
7.43176e-14
7.60632e-14
7.78435e-14
7.96588e-14
8.15094e-14
8.33954e-14
8.53172e-14
8.72748e-14
8.92683e-14
9.12978e-14
9.33633e-14
9.54647e-14
9.76018e-14
9.97745e-14
1.01982e-13
1.04225e-13
1.06502e-13
1.08813e-13
1.11156e-13
1.13532e-13
1.15938e-13
1.18374e-13
1.20838e-13
1.23329e-13
1.25845e-13
1.28383e-13
1.30942e-13
1.33519e-13
1.3611e-13
1.38713e-13
1.41324e-13
1.43938e-13
1.46552e-13
1.4916e-13
1.51757e-13
1.54337e-13
1.56893e-13
1.59417e-13
1.61902e-13
1.64339e-13
1.66718e-13
1.69028e-13
1.71258e-13
1.73396e-13
1.75427e-13
1.77338e-13
1.79111e-13
1.8073e-13
1.82176e-13
1.83431e-13
1.84474e-13
1.85285e-13
1.85844e-13
1.86132e-13
1.45259e-20
4.6602e-20
8.19774e-20
1.20756e-19
1.62996e-19
2.0878e-19
2.5822e-19
3.11453e-19
3.6864e-19
4.29965e-19
4.95626e-19
5.65836e-19
6.40815e-19
7.20795e-19
8.06013e-19
8.96711e-19
9.93137e-19
1.09555e-18
1.20419e-18
1.31935e-18
1.44127e-18
1.57023e-18
1.70652e-18
1.85042e-18
2.00221e-18
2.1622e-18
2.33068e-18
2.50797e-18
2.69439e-18
2.89025e-18
3.09589e-18
3.31165e-18
3.53788e-18
3.77493e-18
4.02317e-18
4.28297e-18
4.55471e-18
4.83879e-18
5.13561e-18
5.44558e-18
5.76911e-18
6.10665e-18
6.45864e-18
6.82552e-18
7.20778e-18
7.60587e-18
8.0203e-18
8.45157e-18
8.90019e-18
9.36669e-18
9.85162e-18
1.03555e-17
1.0879e-17
1.14226e-17
1.19869e-17
1.25727e-17
1.31804e-17
1.38107e-17
1.44644e-17
1.51421e-17
1.58445e-17
1.65724e-17
1.73265e-17
1.81075e-17
1.89163e-17
1.97536e-17
2.06203e-17
2.15173e-17
2.24455e-17
2.34056e-17
2.43988e-17
2.54259e-17
2.64879e-17
2.75858e-17
2.87207e-17
2.98937e-17
3.11058e-17
3.23582e-17
3.3652e-17
3.49885e-17
3.63688e-17
3.77943e-17
3.92663e-17
4.0786e-17
4.23549e-17
4.39745e-17
4.5646e-17
4.73712e-17
4.91514e-17
5.09884e-17
5.28837e-17
5.4839e-17
5.68561e-17
5.89367e-17
6.10826e-17
6.32959e-17
6.55783e-17
6.79319e-17
7.03588e-17
7.2861e-17
7.54407e-17
7.81003e-17
8.08419e-17
8.36679e-17
8.65808e-17
8.95831e-17
9.26773e-17
9.58661e-17
9.91523e-17
1.02539e-16
1.06028e-16
1.09623e-16
1.13327e-16
1.17144e-16
1.21076e-16
1.25126e-16
1.29299e-16
1.33597e-16
1.38025e-16
1.42586e-16
1.47283e-16
1.52121e-16
1.57104e-16
1.62235e-16
1.6752e-16
1.72963e-16
1.78567e-16
1.84338e-16
1.90281e-16
1.964e-16
2.02701e-16
2.09188e-16
2.15867e-16
2.22744e-16
2.29824e-16
2.37113e-16
2.44616e-16
2.52341e-16
2.60293e-16
2.68479e-16
2.76905e-16
2.85579e-16
2.94506e-16
3.03696e-16
3.13154e-16
3.22889e-16
3.32909e-16
3.43221e-16
3.53834e-16
3.64756e-16
3.75997e-16
3.87564e-16
3.99468e-16
4.11718e-16
4.24323e-16
4.37294e-16
4.50642e-16
4.64375e-16
4.78507e-16
4.93046e-16
5.08007e-16
5.23399e-16
5.39235e-16
5.55527e-16
5.72289e-16
5.89534e-16
6.07274e-16
6.25525e-16
6.44299e-16
6.63612e-16
6.83479e-16
7.03915e-16
7.24937e-16
7.46559e-16
7.688e-16
7.91676e-16
8.15204e-16
8.39404e-16
8.64293e-16
8.89891e-16
9.16217e-16
9.43291e-16
9.71134e-16
9.99767e-16
1.02921e-15
1.05949e-15
1.09063e-15
1.12265e-15
1.15557e-15
1.18942e-15
1.22423e-15
1.26002e-15
1.29681e-15
1.33464e-15
1.37354e-15
1.41353e-15
1.45464e-15
1.4969e-15
1.54035e-15
1.58502e-15
1.63093e-15
1.67813e-15
1.72664e-15
1.77651e-15
1.82777e-15
1.88045e-15
1.9346e-15
1.99026e-15
2.04746e-15
2.10625e-15
2.16666e-15
2.22875e-15
2.29256e-15
2.35813e-15
2.42551e-15
2.49475e-15
2.56589e-15
2.639e-15
2.71411e-15
2.79129e-15
2.87058e-15
2.95205e-15
3.03575e-15
3.12174e-15
3.21008e-15
3.30083e-15
3.39405e-15
3.48981e-15
3.58818e-15
3.68922e-15
3.793e-15
3.8996e-15
4.00909e-15
4.12154e-15
4.23702e-15
4.35563e-15
4.47743e-15
4.60251e-15
4.73096e-15
4.86286e-15
4.99829e-15
5.13736e-15
5.28015e-15
5.42676e-15
5.57729e-15
5.73183e-15
5.89048e-15
6.05336e-15
6.22057e-15
6.39221e-15
6.5684e-15
6.74926e-15
6.9349e-15
7.12544e-15
7.321e-15
7.52171e-15
7.72771e-15
7.93911e-15
8.15605e-15
8.37868e-15
8.60713e-15
8.84155e-15
9.08208e-15
9.32887e-15
9.58208e-15
9.84187e-15
1.01084e-14
1.03818e-14
1.06623e-14
1.09501e-14
1.12452e-14
1.1548e-14
1.18585e-14
1.2177e-14
1.25037e-14
1.28387e-14
1.31823e-14
1.35346e-14
1.3896e-14
1.42665e-14
1.46464e-14
1.50359e-14
1.54353e-14
1.58448e-14
1.62646e-14
1.66949e-14
1.71361e-14
1.75883e-14
1.80519e-14
1.8527e-14
1.9014e-14
1.95132e-14
2.00247e-14
2.05489e-14
2.10862e-14
2.16366e-14
2.22007e-14
2.27787e-14
2.33708e-14
2.39775e-14
2.45991e-14
2.52358e-14
2.5888e-14
2.65561e-14
2.72404e-14
2.79413e-14
2.86591e-14
2.93942e-14
3.0147e-14
3.09179e-14
3.17072e-14
3.25153e-14
3.33427e-14
3.41898e-14
3.50569e-14
3.59446e-14
3.68531e-14
3.7783e-14
3.87347e-14
3.97086e-14
4.07052e-14
4.1725e-14
4.27683e-14
4.38358e-14
4.49277e-14
4.60447e-14
4.71872e-14
4.83556e-14
4.95505e-14
5.07724e-14
5.20217e-14
5.3299e-14
5.46047e-14
5.59393e-14
5.73034e-14
5.86974e-14
6.01218e-14
6.15771e-14
6.30637e-14
6.45823e-14
6.61332e-14
6.77168e-14
6.93337e-14
7.09843e-14
7.2669e-14
7.43882e-14
7.61423e-14
7.79317e-14
7.97567e-14
8.16176e-14
8.35147e-14
8.54483e-14
8.74185e-14
8.94256e-14
9.14696e-14
9.35505e-14
9.56685e-14
9.78234e-14
1.00015e-13
1.02243e-13
1.04508e-13
1.06808e-13
1.09144e-13
1.11514e-13
1.13918e-13
1.16355e-13
1.18825e-13
1.21324e-13
1.23853e-13
1.2641e-13
1.28993e-13
1.31599e-13
1.34226e-13
1.36872e-13
1.39534e-13
1.42208e-13
1.44891e-13
1.47578e-13
1.50266e-13
1.52948e-13
1.55619e-13
1.58274e-13
1.60905e-13
1.63505e-13
1.66065e-13
1.68577e-13
1.71032e-13
1.73417e-13
1.75721e-13
1.77932e-13
1.80036e-13
1.82016e-13
1.83858e-13
1.85542e-13
1.87051e-13
1.88364e-13
1.89459e-13
1.90315e-13
1.90908e-13
1.91215e-13
1.42502e-20
4.5708e-20
8.03479e-20
1.1835e-19
1.59843e-19
2.0494e-19
2.53761e-19
3.06446e-19
3.63156e-19
4.24069e-19
4.89383e-19
5.59307e-19
6.34063e-19
7.1388e-19
7.98996e-19
8.89653e-19
9.86102e-19
1.0886e-18
1.1974e-18
1.31278e-18
1.435e-18
1.56434e-18
1.70109e-18
1.84553e-18
1.99795e-18
2.15867e-18
2.32799e-18
2.50623e-18
2.6937e-18
2.89074e-18
3.09769e-18
3.3149e-18
3.54272e-18
3.78151e-18
4.03164e-18
4.29351e-18
4.5675e-18
4.854e-18
5.15344e-18
5.46623e-18
5.79279e-18
6.13359e-18
6.48906e-18
6.85967e-18
7.24589e-18
7.64823e-18
8.06717e-18
8.50323e-18
8.95693e-18
9.42882e-18
9.91946e-18
1.04294e-17
1.09592e-17
1.15096e-17
1.2081e-17
1.26742e-17
1.32898e-17
1.39285e-17
1.45909e-17
1.52777e-17
1.59897e-17
1.67276e-17
1.74922e-17
1.82843e-17
1.91046e-17
1.9954e-17
2.08334e-17
2.17436e-17
2.26855e-17
2.366e-17
2.46682e-17
2.57109e-17
2.67892e-17
2.79041e-17
2.90567e-17
3.0248e-17
3.14792e-17
3.27515e-17
3.4066e-17
3.5424e-17
3.68267e-17
3.82753e-17
3.97714e-17
4.13161e-17
4.29109e-17
4.45573e-17
4.62568e-17
4.80108e-17
4.9821e-17
5.1689e-17
5.36165e-17
5.56051e-17
5.76566e-17
5.97729e-17
6.19558e-17
6.42073e-17
6.65293e-17
6.89238e-17
7.1393e-17
7.39389e-17
7.65639e-17
7.92702e-17
8.20602e-17
8.49361e-17
8.79007e-17
9.09562e-17
9.41055e-17
9.73513e-17
1.00696e-16
1.04143e-16
1.07695e-16
1.11355e-16
1.15126e-16
1.19011e-16
1.23014e-16
1.27138e-16
1.31386e-16
1.35763e-16
1.40271e-16
1.44915e-16
1.49698e-16
1.54624e-16
1.59698e-16
1.64924e-16
1.70305e-16
1.75848e-16
1.81555e-16
1.87432e-16
1.93485e-16
1.99717e-16
2.06133e-16
2.12741e-16
2.19543e-16
2.26547e-16
2.33758e-16
2.41182e-16
2.48825e-16
2.56693e-16
2.64793e-16
2.73131e-16
2.81714e-16
2.90549e-16
2.99643e-16
3.09004e-16
3.18639e-16
3.28556e-16
3.38763e-16
3.49267e-16
3.60079e-16
3.71206e-16
3.82657e-16
3.94441e-16
4.06568e-16
4.19048e-16
4.3189e-16
4.45104e-16
4.58702e-16
4.72694e-16
4.87091e-16
5.01905e-16
5.17146e-16
5.32828e-16
5.48963e-16
5.65563e-16
5.82641e-16
6.0021e-16
6.18286e-16
6.36881e-16
6.5601e-16
6.75688e-16
6.9593e-16
7.16753e-16
7.38171e-16
7.60203e-16
7.82865e-16
8.06174e-16
8.30148e-16
8.54806e-16
8.80167e-16
9.0625e-16
9.33075e-16
9.60663e-16
9.89035e-16
1.01821e-15
1.04822e-15
1.07907e-15
1.1108e-15
1.14343e-15
1.17697e-15
1.21147e-15
1.24694e-15
1.28341e-15
1.32091e-15
1.35946e-15
1.39909e-15
1.43985e-15
1.48174e-15
1.52481e-15
1.56909e-15
1.6146e-15
1.66139e-15
1.70949e-15
1.75893e-15
1.80975e-15
1.86199e-15
1.91568e-15
1.97087e-15
2.02759e-15
2.08588e-15
2.14579e-15
2.20737e-15
2.27065e-15
2.33567e-15
2.4025e-15
2.47117e-15
2.54174e-15
2.61425e-15
2.68875e-15
2.76531e-15
2.84396e-15
2.92478e-15
3.00781e-15
3.09312e-15
3.18076e-15
3.27079e-15
3.36329e-15
3.4583e-15
3.55591e-15
3.65617e-15
3.75915e-15
3.86493e-15
3.97359e-15
4.08518e-15
4.19979e-15
4.31751e-15
4.4384e-15
4.56255e-15
4.69004e-15
4.82097e-15
4.95541e-15
5.09347e-15
5.23522e-15
5.38077e-15
5.53021e-15
5.68365e-15
5.84117e-15
6.0029e-15
6.16893e-15
6.33937e-15
6.51434e-15
6.69394e-15
6.8783e-15
7.06754e-15
7.26177e-15
7.46113e-15
7.66573e-15
7.87572e-15
8.09123e-15
8.31238e-15
8.53933e-15
8.77222e-15
9.0112e-15
9.2564e-15
9.508e-15
9.76614e-15
1.0031e-14
1.03027e-14
1.05814e-14
1.08674e-14
1.11608e-14
1.14617e-14
1.17703e-14
1.20869e-14
1.24117e-14
1.27447e-14
1.30863e-14
1.34366e-14
1.37958e-14
1.41642e-14
1.45419e-14
1.49293e-14
1.53264e-14
1.57336e-14
1.61511e-14
1.65791e-14
1.70179e-14
1.74678e-14
1.79289e-14
1.84015e-14
1.8886e-14
1.93826e-14
1.98915e-14
2.04131e-14
2.09476e-14
2.14954e-14
2.20567e-14
2.26319e-14
2.32213e-14
2.38251e-14
2.44437e-14
2.50775e-14
2.57268e-14
2.63919e-14
2.70732e-14
2.7771e-14
2.84858e-14
2.92178e-14
2.99674e-14
3.07351e-14
3.15213e-14
3.23262e-14
3.31504e-14
3.39942e-14
3.48581e-14
3.57424e-14
3.66477e-14
3.75743e-14
3.85227e-14
3.94933e-14
4.04867e-14
4.15031e-14
4.25432e-14
4.36074e-14
4.46961e-14
4.58099e-14
4.69492e-14
4.81145e-14
4.93064e-14
5.05253e-14
5.17716e-14
5.3046e-14
5.4349e-14
5.56809e-14
5.70424e-14
5.84339e-14
5.9856e-14
6.13092e-14
6.27939e-14
6.43106e-14
6.58599e-14
6.74422e-14
6.90581e-14
7.07078e-14
7.2392e-14
7.41111e-14
7.58654e-14
7.76554e-14
7.94814e-14
8.13438e-14
8.3243e-14
8.51792e-14
8.71527e-14
8.91637e-14
9.12124e-14
9.32988e-14
9.54232e-14
9.75854e-14
9.97855e-14
1.02023e-13
1.04298e-13
1.06611e-13
1.0896e-13
1.11345e-13
1.13767e-13
1.16222e-13
1.18712e-13
1.21235e-13
1.2379e-13
1.26374e-13
1.28988e-13
1.31628e-13
1.34292e-13
1.36979e-13
1.39686e-13
1.42409e-13
1.45145e-13
1.47891e-13
1.50642e-13
1.53394e-13
1.56142e-13
1.5888e-13
1.61601e-13
1.643e-13
1.66968e-13
1.69597e-13
1.72179e-13
1.74703e-13
1.77158e-13
1.79532e-13
1.81812e-13
1.83985e-13
1.86034e-13
1.87942e-13
1.89692e-13
1.91264e-13
1.92636e-13
1.93785e-13
1.94687e-13
1.95316e-13
1.95645e-13
1.39899e-20
4.48596e-20
7.88039e-20
1.16021e-19
1.56689e-19
2.0096e-19
2.48984e-19
3.00916e-19
3.56927e-19
4.172e-19
4.81932e-19
5.51334e-19
6.25624e-19
7.05031e-19
7.89791e-19
8.80146e-19
9.76346e-19
1.07864e-18
1.1873e-18
1.30259e-18
1.42478e-18
1.55415e-18
1.69098e-18
1.83557e-18
1.98821e-18
2.14922e-18
2.31891e-18
2.49759e-18
2.6856e-18
2.88326e-18
3.09094e-18
3.30897e-18
3.53772e-18
3.77756e-18
4.02887e-18
4.29203e-18
4.56745e-18
4.85554e-18
5.1567e-18
5.47137e-18
5.79998e-18
6.14299e-18
6.50086e-18
6.87405e-18
7.26306e-18
7.66838e-18
8.09052e-18
8.53001e-18
8.98737e-18
9.46316e-18
9.95794e-18
1.04723e-17
1.10068e-17
1.15621e-17
1.21388e-17
1.27376e-17
1.3359e-17
1.40038e-17
1.46728e-17
1.53665e-17
1.60857e-17
1.68312e-17
1.76038e-17
1.84043e-17
1.92334e-17
2.0092e-17
2.0981e-17
2.19013e-17
2.28538e-17
2.38394e-17
2.48591e-17
2.59139e-17
2.70047e-17
2.81328e-17
2.9299e-17
3.05046e-17
3.17507e-17
3.30384e-17
3.43691e-17
3.57438e-17
3.71639e-17
3.86307e-17
4.01455e-17
4.17098e-17
4.33249e-17
4.49924e-17
4.67137e-17
4.84904e-17
5.03242e-17
5.22166e-17
5.41693e-17
5.61841e-17
5.82628e-17
6.04073e-17
6.26193e-17
6.49009e-17
6.72541e-17
6.9681e-17
7.21836e-17
7.47642e-17
7.7425e-17
8.01683e-17
8.29965e-17
8.5912e-17
8.89174e-17
9.20153e-17
9.52083e-17
9.84991e-17
1.01891e-16
1.05386e-16
1.08987e-16
1.12699e-16
1.16523e-16
1.20463e-16
1.24522e-16
1.28704e-16
1.33013e-16
1.37451e-16
1.42024e-16
1.46733e-16
1.51585e-16
1.56581e-16
1.61728e-16
1.67029e-16
1.72488e-16
1.78109e-16
1.83899e-16
1.89861e-16
1.96001e-16
2.02323e-16
2.08832e-16
2.15535e-16
2.22436e-16
2.29542e-16
2.36858e-16
2.44389e-16
2.52144e-16
2.60126e-16
2.68344e-16
2.76804e-16
2.85512e-16
2.94476e-16
3.03703e-16
3.13201e-16
3.22977e-16
3.3304e-16
3.43396e-16
3.54055e-16
3.65025e-16
3.76316e-16
3.87935e-16
3.99893e-16
4.12199e-16
4.24862e-16
4.37894e-16
4.51304e-16
4.65102e-16
4.79301e-16
4.93911e-16
5.08943e-16
5.2441e-16
5.40325e-16
5.56698e-16
5.73544e-16
5.90875e-16
6.08706e-16
6.27049e-16
6.4592e-16
6.65334e-16
6.85304e-16
7.05848e-16
7.2698e-16
7.48718e-16
7.71078e-16
7.94077e-16
8.17733e-16
8.42065e-16
8.67091e-16
8.9283e-16
9.19303e-16
9.46529e-16
9.74529e-16
1.00332e-15
1.03294e-15
1.06339e-15
1.09471e-15
1.12691e-15
1.16003e-15
1.19408e-15
1.22909e-15
1.26509e-15
1.30211e-15
1.34017e-15
1.3793e-15
1.41953e-15
1.46089e-15
1.50342e-15
1.54714e-15
1.59208e-15
1.63828e-15
1.68577e-15
1.7346e-15
1.78478e-15
1.83637e-15
1.88939e-15
1.94389e-15
1.99991e-15
2.05749e-15
2.11666e-15
2.17748e-15
2.23998e-15
2.30422e-15
2.37023e-15
2.43807e-15
2.50778e-15
2.57941e-15
2.65302e-15
2.72865e-15
2.80637e-15
2.88622e-15
2.96826e-15
3.05255e-15
3.13915e-15
3.22812e-15
3.31953e-15
3.41342e-15
3.50988e-15
3.60897e-15
3.71076e-15
3.81531e-15
3.9227e-15
4.03301e-15
4.1463e-15
4.26266e-15
4.38217e-15
4.5049e-15
4.63095e-15
4.76039e-15
4.89332e-15
5.02981e-15
5.16998e-15
5.3139e-15
5.46167e-15
5.6134e-15
5.76918e-15
5.92912e-15
6.09333e-15
6.2619e-15
6.43496e-15
6.61261e-15
6.79497e-15
6.98216e-15
7.1743e-15
7.37152e-15
7.57394e-15
7.78169e-15
7.99491e-15
8.21373e-15
8.43829e-15
8.66874e-15
8.90522e-15
9.14787e-15
9.39686e-15
9.65234e-15
9.91446e-15
1.01834e-14
1.04593e-14
1.07424e-14
1.10328e-14
1.13306e-14
1.16362e-14
1.19497e-14
1.22712e-14
1.26009e-14
1.29391e-14
1.3286e-14
1.36417e-14
1.40065e-14
1.43806e-14
1.47643e-14
1.51576e-14
1.5561e-14
1.59745e-14
1.63985e-14
1.68332e-14
1.72788e-14
1.77357e-14
1.8204e-14
1.8684e-14
1.91761e-14
1.96804e-14
2.01973e-14
2.07271e-14
2.127e-14
2.18263e-14
2.23964e-14
2.29806e-14
2.35792e-14
2.41925e-14
2.48209e-14
2.54647e-14
2.61242e-14
2.67997e-14
2.74917e-14
2.82006e-14
2.89266e-14
2.96701e-14
3.04316e-14
3.12115e-14
3.201e-14
3.28277e-14
3.36649e-14
3.45221e-14
3.53997e-14
3.62981e-14
3.72177e-14
3.8159e-14
3.91225e-14
4.01086e-14
4.11177e-14
4.21504e-14
4.3207e-14
4.42882e-14
4.53943e-14
4.65259e-14
4.76835e-14
4.88675e-14
5.00784e-14
5.13169e-14
5.25833e-14
5.38782e-14
5.52021e-14
5.65555e-14
5.7939e-14
5.9353e-14
6.07981e-14
6.22748e-14
6.37836e-14
6.5325e-14
6.68996e-14
6.85077e-14
7.01499e-14
7.18266e-14
7.35384e-14
7.52857e-14
7.70689e-14
7.88884e-14
8.07446e-14
8.26379e-14
8.45686e-14
8.6537e-14
8.85434e-14
9.05881e-14
9.26711e-14
9.47927e-14
9.6953e-14
9.91519e-14
1.01389e-13
1.03665e-13
1.0598e-13
1.08332e-13
1.10722e-13
1.13149e-13
1.15612e-13
1.18111e-13
1.20645e-13
1.23213e-13
1.25813e-13
1.28445e-13
1.31106e-13
1.33794e-13
1.36509e-13
1.39246e-13
1.42004e-13
1.44779e-13
1.47568e-13
1.50368e-13
1.53175e-13
1.55982e-13
1.58787e-13
1.61582e-13
1.64363e-13
1.67121e-13
1.69849e-13
1.72539e-13
1.75183e-13
1.77769e-13
1.80286e-13
1.82724e-13
1.85068e-13
1.87304e-13
1.89417e-13
1.91388e-13
1.932e-13
1.94831e-13
1.9626e-13
1.97461e-13
1.98409e-13
1.99073e-13
1.99423e-13
1.37595e-20
4.4106e-20
7.74327e-20
1.13934e-19
1.53813e-19
1.97256e-19
2.44443e-19
2.95554e-19
3.50777e-19
4.10305e-19
4.74342e-19
5.43099e-19
6.16795e-19
6.95658e-19
7.79922e-19
8.69827e-19
9.65621e-19
1.06756e-18
1.1759e-18
1.2909e-18
1.41286e-18
1.54203e-18
1.67871e-18
1.8232e-18
1.9758e-18
2.13681e-18
2.30655e-18
2.48535e-18
2.67353e-18
2.87144e-18
3.07943e-18
3.29786e-18
3.52708e-18
3.76748e-18
4.01944e-18
4.28335e-18
4.55961e-18
4.84865e-18
5.15087e-18
5.46673e-18
5.79665e-18
6.1411e-18
6.50054e-18
6.87546e-18
7.26634e-18
7.67369e-18
8.09802e-18
8.53986e-18
8.99977e-18
9.47828e-18
9.97599e-18
1.04935e-17
1.10313e-17
1.15902e-17
1.21706e-17
1.27734e-17
1.33991e-17
1.40484e-17
1.47221e-17
1.54209e-17
1.61454e-17
1.68965e-17
1.7675e-17
1.84817e-17
1.93173e-17
2.01828e-17
2.1079e-17
2.20069e-17
2.29673e-17
2.39612e-17
2.49895e-17
2.60534e-17
2.71538e-17
2.82917e-17
2.94683e-17
3.06847e-17
3.19421e-17
3.32416e-17
3.45844e-17
3.59719e-17
3.74053e-17
3.88859e-17
4.04151e-17
4.19943e-17
4.3625e-17
4.53086e-17
4.70467e-17
4.88408e-17
5.06926e-17
5.26038e-17
5.45759e-17
5.66109e-17
5.87106e-17
6.08767e-17
6.31112e-17
6.54161e-17
6.77934e-17
7.02452e-17
7.27736e-17
7.5381e-17
7.80694e-17
8.08414e-17
8.36992e-17
8.66454e-17
8.96825e-17
9.28131e-17
9.60399e-17
9.93658e-17
1.02793e-16
1.06326e-16
1.09966e-16
1.13717e-16
1.17583e-16
1.21565e-16
1.25668e-16
1.29896e-16
1.34251e-16
1.38738e-16
1.4336e-16
1.48122e-16
1.53026e-16
1.58078e-16
1.63281e-16
1.6864e-16
1.74159e-16
1.79843e-16
1.85696e-16
1.91724e-16
1.97932e-16
2.04324e-16
2.10906e-16
2.17683e-16
2.24662e-16
2.31847e-16
2.39244e-16
2.4686e-16
2.54701e-16
2.62773e-16
2.71083e-16
2.79638e-16
2.88444e-16
2.97509e-16
3.0684e-16
3.16445e-16
3.26331e-16
3.36507e-16
3.46981e-16
3.5776e-16
3.68855e-16
3.80273e-16
3.92024e-16
4.04118e-16
4.16563e-16
4.29371e-16
4.42551e-16
4.56113e-16
4.70069e-16
4.84429e-16
4.99206e-16
5.1441e-16
5.30053e-16
5.46149e-16
5.6271e-16
5.79749e-16
5.97278e-16
6.15313e-16
6.33867e-16
6.52954e-16
6.7259e-16
6.9279e-16
7.13569e-16
7.34944e-16
7.56932e-16
7.79549e-16
8.02813e-16
8.26741e-16
8.51353e-16
8.76668e-16
9.02704e-16
9.29482e-16
9.57022e-16
9.85346e-16
1.01447e-15
1.04443e-15
1.07524e-15
1.10691e-15
1.13949e-15
1.17299e-15
1.20743e-15
1.24285e-15
1.27927e-15
1.31672e-15
1.35522e-15
1.3948e-15
1.4355e-15
1.47735e-15
1.52037e-15
1.56459e-15
1.61006e-15
1.6568e-15
1.70485e-15
1.75424e-15
1.80501e-15
1.8572e-15
1.91084e-15
1.96598e-15
2.02265e-15
2.0809e-15
2.14076e-15
2.20229e-15
2.26553e-15
2.33051e-15
2.3973e-15
2.46593e-15
2.53646e-15
2.60893e-15
2.6834e-15
2.75992e-15
2.83855e-15
2.91934e-15
3.00235e-15
3.08763e-15
3.17525e-15
3.26527e-15
3.35775e-15
3.45275e-15
3.55035e-15
3.65061e-15
3.75359e-15
3.85938e-15
3.96804e-15
4.07965e-15
4.19428e-15
4.31202e-15
4.43294e-15
4.55713e-15
4.68466e-15
4.81564e-15
4.95014e-15
5.08826e-15
5.23008e-15
5.37571e-15
5.52524e-15
5.67878e-15
5.83641e-15
5.99825e-15
6.16441e-15
6.33499e-15
6.51011e-15
6.68988e-15
6.87441e-15
7.06384e-15
7.25827e-15
7.45785e-15
7.66269e-15
7.87292e-15
8.08869e-15
8.31013e-15
8.53739e-15
8.77059e-15
9.00991e-15
9.25547e-15
9.50745e-15
9.766e-15
1.00313e-14
1.03034e-14
1.05827e-14
1.08691e-14
1.1163e-14
1.14645e-14
1.17738e-14
1.2091e-14
1.24164e-14
1.27501e-14
1.30924e-14
1.34435e-14
1.38035e-14
1.41727e-14
1.45514e-14
1.49396e-14
1.53378e-14
1.5746e-14
1.61646e-14
1.65937e-14
1.70337e-14
1.74847e-14
1.79471e-14
1.84212e-14
1.89071e-14
1.94051e-14
1.99156e-14
2.04388e-14
2.0975e-14
2.15246e-14
2.20877e-14
2.26648e-14
2.32562e-14
2.38621e-14
2.4483e-14
2.5119e-14
2.57707e-14
2.64383e-14
2.71222e-14
2.78227e-14
2.85403e-14
2.92752e-14
3.0028e-14
3.07989e-14
3.15883e-14
3.23968e-14
3.32246e-14
3.40722e-14
3.494e-14
3.58285e-14
3.6738e-14
3.76691e-14
3.86221e-14
3.95976e-14
4.0596e-14
4.16177e-14
4.26633e-14
4.37332e-14
4.48279e-14
4.59479e-14
4.70936e-14
4.82657e-14
4.94646e-14
5.06908e-14
5.19449e-14
5.32273e-14
5.45386e-14
5.58792e-14
5.72498e-14
5.86508e-14
6.00828e-14
6.15464e-14
6.30419e-14
6.457e-14
6.61311e-14
6.77258e-14
6.93546e-14
7.1018e-14
7.27164e-14
7.44503e-14
7.62202e-14
7.80265e-14
7.98697e-14
8.17501e-14
8.36682e-14
8.56243e-14
8.76187e-14
8.96516e-14
9.17234e-14
9.38342e-14
9.59841e-14
9.81733e-14
1.00402e-13
1.0267e-13
1.04977e-13
1.07322e-13
1.09707e-13
1.1213e-13
1.14591e-13
1.17089e-13
1.19623e-13
1.22193e-13
1.24797e-13
1.27435e-13
1.30105e-13
1.32805e-13
1.35534e-13
1.38288e-13
1.41067e-13
1.43868e-13
1.46686e-13
1.4952e-13
1.52365e-13
1.55217e-13
1.58072e-13
1.60924e-13
1.63768e-13
1.66598e-13
1.69406e-13
1.72186e-13
1.74928e-13
1.77624e-13
1.80264e-13
1.82837e-13
1.8533e-13
1.8773e-13
1.90022e-13
1.92191e-13
1.94219e-13
1.96086e-13
1.97771e-13
1.99251e-13
2.005e-13
2.01489e-13
2.02186e-13
2.02555e-13
1.35665e-20
4.34743e-20
7.62847e-20
1.12182e-19
1.51376e-19
1.94078e-19
2.40494e-19
2.9083e-19
3.45291e-19
4.04084e-19
4.67423e-19
5.35522e-19
6.08602e-19
6.86892e-19
7.70622e-19
8.60032e-19
9.55367e-19
1.05688e-18
1.16483e-18
1.27948e-18
1.4011e-18
1.52998e-18
1.6664e-18
1.81066e-18
1.96306e-18
2.12391e-18
2.29353e-18
2.47225e-18
2.6604e-18
2.85832e-18
3.06638e-18
3.28492e-18
3.51432e-18
3.75496e-18
4.00722e-18
4.2715e-18
4.54821e-18
4.83777e-18
5.1406e-18
5.45715e-18
5.78786e-18
6.13319e-18
6.49361e-18
6.86962e-18
7.2617e-18
7.67036e-18
8.09613e-18
8.53954e-18
9.00114e-18
9.48149e-18
9.98118e-18
1.05008e-17
1.10409e-17
1.16022e-17
1.21853e-17
1.27909e-17
1.34195e-17
1.40721e-17
1.47491e-17
1.54514e-17
1.61797e-17
1.69349e-17
1.77176e-17
1.85287e-17
1.9369e-17
2.02395e-17