/*--------------------------------*- C++ -*----------------------------------*\
  =========                 |
  \\      /  F ield         | OpenFOAM: The Open Source CFD Toolbox
   \\    /   O peration     | Website:  https://openfoam.org
    \\  /    A nd           | Version:  dev
     \\/     M anipulation  |
\*---------------------------------------------------------------------------*/
FoamFile
{
    format      ascii;
    class       volScalarField;
    location    "0.4";
    object      beta;
}
// * * * * * * * * * * * * * * * * * * * * * * * * * * * * * * * * * * * * * //

dimensions      [0 0 0 0 0 0 0];

internalField   uniform 0;

boundaryField
{
    frontAndBack
    {
        type            empty;
    }
    inlet
    {
        type            calculated;
        value           uniform 0;
    }
    outlet
    {
        type            calculated;
        value           uniform 0;
    }
    substrate
    {
        type            calculated;
        value           nonuniform List<scalar> 
400
(
0.00276608
0.00290564
0.00300803
0.00310162
0.00319055
0.00327519
0.00335654
0.00343547
0.00351263
0.00358845
0.00366328
0.00373739
0.00381096
0.00388416
0.00395709
0.00402986
0.00410251
0.00417508
0.00424762
0.00432013
0.00439261
0.00446507
0.0045375
0.00460988
0.00468221
0.00475444
0.00482658
0.00489859
0.00497045
0.00504214
0.00511363
0.00518489
0.00525591
0.00532665
0.0053971
0.00546722
0.005537
0.0056064
0.00567542
0.00574402
0.00581218
0.00587989
0.00594712
0.00601386
0.00608009
0.00614578
0.00621093
0.00627551
0.00633951
0.00640292
0.00646572
0.0065279
0.00658944
0.00665034
0.00671059
0.00677017
0.00682908
0.0068873
0.00694484
0.00700167
0.00705781
0.00711323
0.00716794
0.00722193
0.0072752
0.00732775
0.00737957
0.00743066
0.00748102
0.00753064
0.00757954
0.00762771
0.00767515
0.00772186
0.00776784
0.0078131
0.00785763
0.00790145
0.00794456
0.00798695
0.00802864
0.00806962
0.00810991
0.0081495
0.00818841
0.00822664
0.00826419
0.00830107
0.00833729
0.00837286
0.00840777
0.00844204
0.00847568
0.00850869
0.00854107
0.00857285
0.00860402
0.00863459
0.00866457
0.00869396
0.00872279
0.00875104
0.00877874
0.00880589
0.00883249
0.00885856
0.00888411
0.00890913
0.00893365
0.00895766
0.00898118
0.00900421
0.00902677
0.00904885
0.00907048
0.00909164
0.00911237
0.00913265
0.0091525
0.00917193
0.00919094
0.00920955
0.00922775
0.00924556
0.00926299
0.00928003
0.00929671
0.00931302
0.00932897
0.00934457
0.00935983
0.00937475
0.00938934
0.0094036
0.00941755
0.00943118
0.00944451
0.00945755
0.00947028
0.00948274
0.00949491
0.0095068
0.00951843
0.00952979
0.0095409
0.00955175
0.00956235
0.00957271
0.00958284
0.00959273
0.00960239
0.00961184
0.00962106
0.00963007
0.00963888
0.00964748
0.00965588
0.00966408
0.0096721
0.00967993
0.00968757
0.00969504
0.00970233
0.00970946
0.00971641
0.00972321
0.00972984
0.00973632
0.00974264
0.00974882
0.00975485
0.00976074
0.0097665
0.00977211
0.00977759
0.00978295
0.00978817
0.00979328
0.00979826
0.00980312
0.00980787
0.0098125
0.00981703
0.00982145
0.00982576
0.00982997
0.00983408
0.00983809
0.009842
0.00984583
0.00984956
0.0098532
0.00985675
0.00986022
0.00986361
0.00986691
0.00987014
0.00987329
0.00987636
0.00987936
0.00988229
0.00988515
0.00988794
0.00989066
0.00989331
0.00989591
0.00989844
0.0099009
0.00990331
0.00990567
0.00990796
0.0099102
0.00991239
0.00991452
0.0099166
0.00991863
0.00992061
0.00992255
0.00992443
0.00992628
0.00992807
0.00992983
0.00993154
0.00993321
0.00993484
0.00993643
0.00993798
0.00993949
0.00994097
0.00994241
0.00994382
0.00994519
0.00994653
0.00994784
0.00994912
0.00995036
0.00995157
0.00995276
0.00995392
0.00995504
0.00995614
0.00995722
0.00995827
0.00995929
0.00996029
0.00996126
0.00996221
0.00996314
0.00996404
0.00996492
0.00996578
0.00996662
0.00996744
0.00996824
0.00996902
0.00996978
0.00997053
0.00997125
0.00997196
0.00997265
0.00997332
0.00997398
0.00997462
0.00997524
0.00997585
0.00997645
0.00997703
0.00997759
0.00997815
0.00997869
0.00997921
0.00997973
0.00998023
0.00998071
0.00998119
0.00998166
0.00998211
0.00998255
0.00998298
0.00998341
0.00998382
0.00998422
0.00998461
0.00998499
0.00998536
0.00998573
0.00998608
0.00998643
0.00998676
0.00998709
0.00998741
0.00998773
0.00998803
0.00998833
0.00998862
0.00998891
0.00998918
0.00998945
0.00998972
0.00998997
0.00999022
0.00999047
0.00999071
0.00999094
0.00999117
0.00999139
0.0099916
0.00999181
0.00999202
0.00999222
0.00999242
0.00999261
0.00999279
0.00999298
0.00999315
0.00999333
0.00999349
0.00999366
0.00999382
0.00999398
0.00999413
0.00999428
0.00999442
0.00999456
0.0099947
0.00999484
0.00999497
0.0099951
0.00999522
0.00999534
0.00999546
0.00999558
0.00999569
0.0099958
0.00999591
0.00999601
0.00999612
0.00999622
0.00999631
0.00999641
0.0099965
0.00999659
0.00999668
0.00999676
0.00999685
0.00999693
0.00999701
0.00999709
0.00999716
0.00999724
0.00999731
0.00999738
0.00999745
0.00999751
0.00999758
0.00999764
0.0099977
0.00999776
0.00999782
0.00999788
0.00999793
0.00999799
0.00999804
0.00999809
0.00999814
0.00999819
0.00999824
0.00999829
0.00999833
0.00999837
0.00999842
0.00999846
0.0099985
0.00999854
0.00999858
0.00999861
0.00999865
0.00999869
0.00999872
0.00999875
0.00999878
0.00999881
0.00999884
0.00999887
0.0099989
0.00999893
0.00999895
0.00999897
0.009999
0.00999902
0.00999904
0.00999906
0.00999907
0.00999909
0.0099991
0.00999911
0.00999912
0.00999913
0.00999914
0.00999914
)
;
    }
    Wall
    {
        type            calculated;
        value           nonuniform List<scalar> 
400
(
0.00276608
0.00290564
0.00300802
0.00310161
0.00319055
0.0032752
0.00335655
0.00343549
0.00351265
0.00358847
0.00366331
0.00373741
0.00381099
0.00388418
0.00395712
0.00402988
0.00410253
0.0041751
0.00424764
0.00432014
0.00439263
0.00446509
0.00453751
0.00460989
0.00468221
0.00475445
0.00482659
0.00489859
0.00497045
0.00504214
0.00511363
0.00518489
0.00525591
0.00532665
0.00539709
0.00546721
0.00553699
0.00560639
0.00567541
0.00574401
0.00581217
0.00587988
0.00594711
0.00601385
0.00608007
0.00614577
0.00621091
0.00627549
0.00633949
0.0064029
0.0064657
0.00652788
0.00658943
0.00665033
0.00671057
0.00677015
0.00682906
0.00688728
0.00694482
0.00700165
0.00705779
0.00711321
0.00716792
0.00722191
0.00727518
0.00732773
0.00737955
0.00743064
0.00748099
0.00753062
0.00757952
0.00762769
0.00767513
0.00772183
0.00776782
0.00781308
0.00785761
0.00790143
0.00794454
0.00798693
0.00802862
0.0080696
0.00810989
0.00814949
0.00818839
0.00822662
0.00826417
0.00830106
0.00833728
0.00837284
0.00840775
0.00844203
0.00847566
0.00850867
0.00854106
0.00857283
0.008604
0.00863457
0.00866455
0.00869395
0.00872277
0.00875103
0.00877873
0.00880588
0.00883248
0.00885855
0.0088841
0.00890912
0.00893364
0.00895765
0.00898117
0.0090042
0.00902676
0.00904884
0.00907046
0.00909163
0.00911236
0.00913264
0.00915249
0.00917192
0.00919093
0.00920954
0.00922774
0.00924555
0.00926298
0.00928002
0.0092967
0.00931301
0.00932896
0.00934456
0.00935982
0.00937474
0.00938933
0.00940359
0.00941754
0.00943118
0.00944451
0.00945754
0.00947028
0.00948273
0.0094949
0.0095068
0.00951842
0.00952979
0.00954089
0.00955174
0.00956235
0.00957271
0.00958283
0.00959272
0.00960239
0.00961183
0.00962106
0.00963007
0.00963887
0.00964747
0.00965587
0.00966408
0.00967209
0.00967992
0.00968757
0.00969504
0.00970233
0.00970945
0.00971641
0.0097232
0.00972984
0.00973632
0.00974264
0.00974882
0.00975485
0.00976074
0.00976649
0.00977211
0.00977759
0.00978294
0.00978817
0.00979327
0.00979825
0.00980312
0.00980787
0.0098125
0.00981703
0.00982144
0.00982576
0.00982997
0.00983408
0.00983809
0.009842
0.00984582
0.00984956
0.0098532
0.00985675
0.00986022
0.00986361
0.00986691
0.00987014
0.00987329
0.00987636
0.00987936
0.00988229
0.00988515
0.00988793
0.00989066
0.00989331
0.0098959
0.00989843
0.0099009
0.00990331
0.00990566
0.00990796
0.0099102
0.00991238
0.00991452
0.0099166
0.00991863
0.00992061
0.00992255
0.00992443
0.00992627
0.00992807
0.00992983
0.00993154
0.00993321
0.00993484
0.00993643
0.00993798
0.00993949
0.00994097
0.00994241
0.00994382
0.00994519
0.00994653
0.00994784
0.00994911
0.00995036
0.00995157
0.00995276
0.00995391
0.00995504
0.00995614
0.00995722
0.00995827
0.00995929
0.00996029
0.00996126
0.00996221
0.00996314
0.00996404
0.00996492
0.00996578
0.00996662
0.00996744
0.00996824
0.00996902
0.00996978
0.00997053
0.00997125
0.00997196
0.00997265
0.00997332
0.00997398
0.00997462
0.00997524
0.00997585
0.00997645
0.00997703
0.00997759
0.00997815
0.00997869
0.00997921
0.00997973
0.00998023
0.00998071
0.00998119
0.00998166
0.00998211
0.00998255
0.00998298
0.00998341
0.00998382
0.00998422
0.00998461
0.00998499
0.00998536
0.00998573
0.00998608
0.00998643
0.00998676
0.00998709
0.00998741
0.00998773
0.00998803
0.00998833
0.00998862
0.00998891
0.00998918
0.00998945
0.00998972
0.00998997
0.00999022
0.00999047
0.00999071
0.00999094
0.00999117
0.00999139
0.0099916
0.00999181
0.00999202
0.00999222
0.00999242
0.00999261
0.00999279
0.00999298
0.00999315
0.00999333
0.00999349
0.00999366
0.00999382
0.00999398
0.00999413
0.00999428
0.00999442
0.00999456
0.0099947
0.00999484
0.00999497
0.0099951
0.00999522
0.00999534
0.00999546
0.00999558
0.00999569
0.0099958
0.00999591
0.00999601
0.00999612
0.00999622
0.00999631
0.00999641
0.0099965
0.00999659
0.00999668
0.00999676
0.00999685
0.00999693
0.00999701
0.00999709
0.00999716
0.00999724
0.00999731
0.00999738
0.00999745
0.00999751
0.00999758
0.00999764
0.0099977
0.00999776
0.00999782
0.00999788
0.00999793
0.00999799
0.00999804
0.00999809
0.00999814
0.00999819
0.00999824
0.00999829
0.00999833
0.00999837
0.00999842
0.00999846
0.0099985
0.00999854
0.00999858
0.00999861
0.00999865
0.00999869
0.00999872
0.00999875
0.00999878
0.00999881
0.00999884
0.00999887
0.0099989
0.00999893
0.00999895
0.00999897
0.009999
0.00999902
0.00999904
0.00999906
0.00999907
0.00999909
0.0099991
0.00999911
0.00999912
0.00999913
0.00999914
0.00999914
)
;
    }
}


// ************************************************************************* //
