/*--------------------------------*- C++ -*----------------------------------*\
  =========                 |
  \\      /  F ield         | OpenFOAM: The Open Source CFD Toolbox
   \\    /   O peration     | Website:  https://openfoam.org
    \\  /    A nd           | Version:  dev
     \\/     M anipulation  |
\*---------------------------------------------------------------------------*/
FoamFile
{
    format      ascii;
    class       volScalarField;
    location    "0.4";
    object      Exp1;
}
// * * * * * * * * * * * * * * * * * * * * * * * * * * * * * * * * * * * * * //

dimensions      [0 0 0 0 0 0 0];

internalField   uniform 0;

boundaryField
{
    frontAndBack
    {
        type            empty;
    }
    inlet
    {
        type            calculated;
        value           uniform 0;
    }
    outlet
    {
        type            calculated;
        value           uniform 0;
    }
    substrate
    {
        type            calculated;
        value           nonuniform List<scalar> 
400
(
1.1387e-10
3.62671e-10
6.36365e-10
9.33781e-10
1.25509e-09
1.60138e-09
1.9737e-09
2.37316e-09
2.80101e-09
3.25857e-09
3.74728e-09
4.26864e-09
4.82419e-09
5.41551e-09
6.04423e-09
6.712e-09
7.42049e-09
8.1714e-09
8.96644e-09
9.80734e-09
1.06959e-08
1.16338e-08
1.26229e-08
1.3665e-08
1.47619e-08
1.59156e-08
1.71278e-08
1.84006e-08
1.97359e-08
2.11357e-08
2.26019e-08
2.41366e-08
2.57419e-08
2.74199e-08
2.91728e-08
3.10026e-08
3.29117e-08
3.49022e-08
3.69765e-08
3.91367e-08
4.13854e-08
4.37249e-08
4.61575e-08
4.86859e-08
5.13123e-08
5.40395e-08
5.68699e-08
5.98063e-08
6.28511e-08
6.60072e-08
6.92773e-08
7.26641e-08
7.61704e-08
7.97992e-08
8.35534e-08
8.74358e-08
9.14496e-08
9.55976e-08
9.9883e-08
1.04309e-07
1.08879e-07
1.13595e-07
1.18462e-07
1.23482e-07
1.28659e-07
1.33997e-07
1.39498e-07
1.45166e-07
1.51005e-07
1.57018e-07
1.6321e-07
1.69582e-07
1.76141e-07
1.82888e-07
1.89829e-07
1.96966e-07
2.04304e-07
2.11846e-07
2.19598e-07
2.27562e-07
2.35743e-07
2.44145e-07
2.52772e-07
2.61628e-07
2.70718e-07
2.80046e-07
2.89616e-07
2.99433e-07
3.09501e-07
3.19824e-07
3.30407e-07
3.41255e-07
3.52371e-07
3.63761e-07
3.7543e-07
3.87381e-07
3.99619e-07
4.12149e-07
4.24976e-07
4.38105e-07
4.5154e-07
4.65286e-07
4.79347e-07
4.93729e-07
5.08436e-07
5.23473e-07
5.38844e-07
5.54555e-07
5.70611e-07
5.87015e-07
6.03773e-07
6.20889e-07
6.38369e-07
6.56216e-07
6.74436e-07
6.93033e-07
7.12012e-07
7.31377e-07
7.51133e-07
7.71284e-07
7.91835e-07
8.1279e-07
8.34154e-07
8.55931e-07
8.78124e-07
9.00739e-07
9.23779e-07
9.47248e-07
9.71151e-07
9.9549e-07
1.02027e-06
1.0455e-06
1.07117e-06
1.09729e-06
1.12387e-06
1.15091e-06
1.17841e-06
1.20637e-06
1.2348e-06
1.26369e-06
1.29307e-06
1.32291e-06
1.35323e-06
1.38403e-06
1.41532e-06
1.44708e-06
1.47933e-06
1.51207e-06
1.54529e-06
1.579e-06
1.6132e-06
1.64789e-06
1.68307e-06
1.71874e-06
1.7549e-06
1.79156e-06
1.8287e-06
1.86633e-06
1.90445e-06
1.94306e-06
1.98215e-06
2.02173e-06
2.0618e-06
2.10234e-06
2.14336e-06
2.18486e-06
2.22683e-06
2.26927e-06
2.31218e-06
2.35555e-06
2.39939e-06
2.44367e-06
2.48841e-06
2.53359e-06
2.57921e-06
2.62527e-06
2.67176e-06
2.71867e-06
2.766e-06
2.81374e-06
2.86188e-06
2.91042e-06
2.95934e-06
3.00865e-06
3.05833e-06
3.10838e-06
3.15878e-06
3.20953e-06
3.26062e-06
3.31203e-06
3.36376e-06
3.4158e-06
3.46813e-06
3.52075e-06
3.57365e-06
3.62681e-06
3.68022e-06
3.73386e-06
3.78774e-06
3.84182e-06
3.89611e-06
3.95059e-06
4.00524e-06
4.06005e-06
4.115e-06
4.17009e-06
4.22529e-06
4.2806e-06
4.33599e-06
4.39145e-06
4.44697e-06
4.50253e-06
4.55811e-06
4.6137e-06
4.66929e-06
4.72484e-06
4.78035e-06
4.83581e-06
4.89118e-06
4.94646e-06
5.00163e-06
5.05667e-06
5.11156e-06
5.16628e-06
5.22082e-06
5.27516e-06
5.32928e-06
5.38316e-06
5.43678e-06
5.49012e-06
5.54317e-06
5.5959e-06
5.64831e-06
5.70036e-06
5.75204e-06
5.80333e-06
5.85421e-06
5.90467e-06
5.95468e-06
6.00423e-06
6.05329e-06
6.10185e-06
6.14989e-06
6.1974e-06
6.24435e-06
6.29072e-06
6.3365e-06
6.38167e-06
6.4262e-06
6.4701e-06
6.51333e-06
6.55587e-06
6.59772e-06
6.63886e-06
6.67926e-06
6.71892e-06
6.75781e-06
6.79592e-06
6.83324e-06
6.86974e-06
6.90542e-06
6.94026e-06
6.97424e-06
7.00736e-06
7.03959e-06
7.07092e-06
7.10135e-06
7.13085e-06
7.15942e-06
7.18704e-06
7.21371e-06
7.2394e-06
7.26412e-06
7.28785e-06
7.31057e-06
7.33229e-06
7.35299e-06
7.37266e-06
7.39129e-06
7.40889e-06
7.42543e-06
7.44091e-06
7.45533e-06
7.46869e-06
7.48096e-06
7.49216e-06
7.50228e-06
7.5113e-06
7.51924e-06
7.52608e-06
7.53182e-06
7.53647e-06
7.54001e-06
7.54246e-06
7.5438e-06
7.54405e-06
7.5432e-06
7.54125e-06
7.53819e-06
7.53404e-06
7.52879e-06
7.52245e-06
7.51502e-06
7.50651e-06
7.49692e-06
7.48626e-06
7.47453e-06
7.46173e-06
7.44788e-06
7.43298e-06
7.41704e-06
7.40006e-06
7.38206e-06
7.36304e-06
7.34301e-06
7.32198e-06
7.29997e-06
7.27697e-06
7.25301e-06
7.22809e-06
7.20222e-06
7.17542e-06
7.1477e-06
7.11907e-06
7.08954e-06
7.05913e-06
7.02785e-06
6.99571e-06
6.96274e-06
6.92893e-06
6.89432e-06
6.8589e-06
6.82271e-06
6.78575e-06
6.74804e-06
6.7096e-06
6.67044e-06
6.63058e-06
6.59004e-06
6.54884e-06
6.50698e-06
6.4645e-06
6.4214e-06
6.37771e-06
6.33344e-06
6.28862e-06
6.24326e-06
6.19738e-06
6.15101e-06
6.10415e-06
6.05684e-06
6.00909e-06
5.96092e-06
5.91236e-06
5.86343e-06
5.81414e-06
5.76452e-06
5.7146e-06
5.66439e-06
5.61393e-06
5.56323e-06
5.51233e-06
5.46124e-06
5.41e-06
5.35864e-06
5.30719e-06
5.25567e-06
5.20412e-06
5.15258e-06
5.10108e-06
5.04967e-06
4.99837e-06
4.94724e-06
4.89633e-06
4.84567e-06
4.79534e-06
4.74538e-06
4.69587e-06
4.64686e-06
4.59843e-06
4.55067e-06
4.50365e-06
4.45749e-06
4.41228e-06
4.36814e-06
4.32519e-06
4.28358e-06
4.24345e-06
4.20498e-06
4.16833e-06
4.13372e-06
4.10135e-06
4.07147e-06
4.04432e-06
4.02018e-06
3.99933e-06
3.98208e-06
3.96873e-06
3.95959e-06
3.95491e-06
)
;
    }
    Wall
    {
        type            calculated;
        value           nonuniform List<scalar> 
400
(
1.13868e-10
3.62665e-10
6.36354e-10
9.33764e-10
1.25506e-09
1.60134e-09
1.97365e-09
2.37311e-09
2.80093e-09
3.25848e-09
3.74718e-09
4.26852e-09
4.82404e-09
5.41534e-09
6.04403e-09
6.71177e-09
7.42024e-09
8.17111e-09
8.96612e-09
9.80698e-09
1.06955e-08
1.16333e-08
1.26224e-08
1.36645e-08
1.47614e-08
1.5915e-08
1.71272e-08
1.84e-08
1.97352e-08
2.11349e-08
2.26011e-08
2.41358e-08
2.57411e-08
2.7419e-08
2.91718e-08
3.10017e-08
3.29107e-08
3.49011e-08
3.69753e-08
3.91356e-08
4.13842e-08
4.37236e-08
4.61562e-08
4.86845e-08
5.13109e-08
5.4038e-08
5.68683e-08
5.98046e-08
6.28494e-08
6.60054e-08
6.92754e-08
7.26621e-08
7.61684e-08
7.97971e-08
8.35512e-08
8.74336e-08
9.14472e-08
9.55951e-08
9.98805e-08
1.04306e-07
1.08876e-07
1.13592e-07
1.18459e-07
1.23479e-07
1.28656e-07
1.33993e-07
1.39494e-07
1.45163e-07
1.51001e-07
1.57015e-07
1.63206e-07
1.69579e-07
1.76137e-07
1.82884e-07
1.89824e-07
1.96961e-07
2.04299e-07
2.11842e-07
2.19593e-07
2.27557e-07
2.35738e-07
2.44139e-07
2.52766e-07
2.61623e-07
2.70712e-07
2.8004e-07
2.8961e-07
2.99427e-07
3.09494e-07
3.19817e-07
3.304e-07
3.41248e-07
3.52364e-07
3.63754e-07
3.75422e-07
3.87372e-07
3.99611e-07
4.12141e-07
4.24968e-07
4.38096e-07
4.51531e-07
4.65276e-07
4.79337e-07
4.93719e-07
5.08425e-07
5.23462e-07
5.38833e-07
5.54544e-07
5.70599e-07
5.87003e-07
6.03761e-07
6.20877e-07
6.38356e-07
6.56203e-07
6.74423e-07
6.93019e-07
7.11998e-07
7.31363e-07
7.51118e-07
7.71269e-07
7.9182e-07
8.12775e-07
8.34138e-07
8.55915e-07
8.78108e-07
9.00722e-07
9.23762e-07
9.47231e-07
9.71133e-07
9.95472e-07
1.02025e-06
1.04548e-06
1.07115e-06
1.09727e-06
1.12385e-06
1.15089e-06
1.17838e-06
1.20635e-06
1.23477e-06
1.26367e-06
1.29304e-06
1.32289e-06
1.35321e-06
1.38401e-06
1.41529e-06
1.44706e-06
1.47931e-06
1.51204e-06
1.54526e-06
1.57897e-06
1.61317e-06
1.64786e-06
1.68304e-06
1.71871e-06
1.75487e-06
1.79153e-06
1.82867e-06
1.8663e-06
1.90442e-06
1.94303e-06
1.98212e-06
2.0217e-06
2.06176e-06
2.1023e-06
2.14333e-06
2.18482e-06
2.2268e-06
2.26924e-06
2.31215e-06
2.35552e-06
2.39935e-06
2.44363e-06
2.48837e-06
2.53355e-06
2.57917e-06
2.62523e-06
2.67172e-06
2.71863e-06
2.76595e-06
2.81369e-06
2.86183e-06
2.91037e-06
2.9593e-06
3.00861e-06
3.05829e-06
3.10833e-06
3.15873e-06
3.20948e-06
3.26057e-06
3.31198e-06
3.36371e-06
3.41575e-06
3.46808e-06
3.5207e-06
3.5736e-06
3.62675e-06
3.68016e-06
3.73381e-06
3.78768e-06
3.84177e-06
3.89606e-06
3.95053e-06
4.00518e-06
4.05999e-06
4.11494e-06
4.17003e-06
4.22523e-06
4.28054e-06
4.33593e-06
4.39139e-06
4.44691e-06
4.50247e-06
4.55805e-06
4.61364e-06
4.66922e-06
4.72478e-06
4.78029e-06
4.83574e-06
4.89112e-06
4.9464e-06
5.00157e-06
5.0566e-06
5.11149e-06
5.16622e-06
5.22076e-06
5.2751e-06
5.32921e-06
5.38309e-06
5.43671e-06
5.49005e-06
5.5431e-06
5.59584e-06
5.64824e-06
5.70029e-06
5.75197e-06
5.80326e-06
5.85414e-06
5.9046e-06
5.95461e-06
6.00415e-06
6.05322e-06
6.10178e-06
6.14982e-06
6.19733e-06
6.24427e-06
6.29065e-06
6.33642e-06
6.38159e-06
6.42613e-06
6.47002e-06
6.51325e-06
6.5558e-06
6.59765e-06
6.63879e-06
6.67919e-06
6.71885e-06
6.75774e-06
6.79585e-06
6.83316e-06
6.86967e-06
6.90535e-06
6.94019e-06
6.97417e-06
7.00728e-06
7.03952e-06
7.07085e-06
7.10128e-06
7.13078e-06
7.15935e-06
7.18697e-06
7.21364e-06
7.23934e-06
7.26405e-06
7.28778e-06
7.3105e-06
7.33222e-06
7.35292e-06
7.37259e-06
7.39123e-06
7.40882e-06
7.42536e-06
7.44085e-06
7.45527e-06
7.46862e-06
7.4809e-06
7.49209e-06
7.50221e-06
7.51124e-06
7.51917e-06
7.52601e-06
7.53176e-06
7.5364e-06
7.53995e-06
7.54239e-06
7.54374e-06
7.54398e-06
7.54314e-06
7.54118e-06
7.53813e-06
7.53398e-06
7.52873e-06
7.52239e-06
7.51496e-06
7.50645e-06
7.49687e-06
7.4862e-06
7.47447e-06
7.46168e-06
7.44783e-06
7.43293e-06
7.41699e-06
7.40001e-06
7.38201e-06
7.36299e-06
7.34296e-06
7.32194e-06
7.29992e-06
7.27693e-06
7.25297e-06
7.22805e-06
7.20218e-06
7.17538e-06
7.14766e-06
7.11903e-06
7.0895e-06
7.05909e-06
7.02781e-06
6.99568e-06
6.9627e-06
6.9289e-06
6.89428e-06
6.85887e-06
6.82268e-06
6.78572e-06
6.74801e-06
6.70957e-06
6.67041e-06
6.63056e-06
6.59002e-06
6.54881e-06
6.50696e-06
6.46447e-06
6.42138e-06
6.37769e-06
6.33342e-06
6.2886e-06
6.24324e-06
6.19736e-06
6.15099e-06
6.10413e-06
6.05682e-06
6.00907e-06
5.96091e-06
5.91234e-06
5.86341e-06
5.81412e-06
5.76451e-06
5.71458e-06
5.66438e-06
5.61391e-06
5.56322e-06
5.51231e-06
5.46123e-06
5.40999e-06
5.35863e-06
5.30718e-06
5.25566e-06
5.20412e-06
5.15258e-06
5.10108e-06
5.04966e-06
4.99836e-06
4.94724e-06
4.89632e-06
4.84567e-06
4.79534e-06
4.74538e-06
4.69586e-06
4.64685e-06
4.59843e-06
4.55066e-06
4.50365e-06
4.45749e-06
4.41228e-06
4.36814e-06
4.3252e-06
4.28358e-06
4.24346e-06
4.20498e-06
4.16834e-06
4.13372e-06
4.10136e-06
4.07147e-06
4.04433e-06
4.02019e-06
3.99934e-06
3.9821e-06
3.96875e-06
3.95961e-06
3.95493e-06
)
;
    }
}


// ************************************************************************* //
