/*--------------------------------*- C++ -*----------------------------------*\
  =========                 |
  \\      /  F ield         | OpenFOAM: The Open Source CFD Toolbox
   \\    /   O peration     | Website:  https://openfoam.org
    \\  /    A nd           | Version:  dev
     \\/     M anipulation  |
\*---------------------------------------------------------------------------*/
FoamFile
{
    format      ascii;
    class       volScalarField;
    location    "0.4";
    object      growth;
}
// * * * * * * * * * * * * * * * * * * * * * * * * * * * * * * * * * * * * * //

dimensions      [0 0 0 0 0 0 0];

internalField   uniform 0;

boundaryField
{
    frontAndBack
    {
        type            empty;
    }
    inlet
    {
        type            calculated;
        value           uniform 0;
    }
    outlet
    {
        type            calculated;
        value           uniform 0;
    }
    substrate
    {
        type            calculated;
        value           nonuniform List<scalar> 
400
(
0.723392
0.709436
0.699197
0.689838
0.680945
0.672481
0.664346
0.656453
0.648737
0.641155
0.633672
0.626261
0.618904
0.611584
0.604291
0.597014
0.589749
0.582492
0.575238
0.567987
0.560739
0.553493
0.54625
0.539012
0.531779
0.524556
0.517342
0.510141
0.502955
0.495786
0.488637
0.481511
0.474409
0.467335
0.46029
0.453278
0.4463
0.43936
0.432458
0.425598
0.418782
0.412011
0.405288
0.398614
0.391991
0.385422
0.378907
0.372449
0.366049
0.359708
0.353428
0.34721
0.341056
0.334966
0.328941
0.322983
0.317092
0.31127
0.305516
0.299833
0.294219
0.288677
0.283206
0.277807
0.27248
0.267225
0.262043
0.256934
0.251898
0.246936
0.242046
0.237229
0.232485
0.227814
0.223216
0.21869
0.214237
0.209855
0.205544
0.201305
0.197136
0.193038
0.189009
0.18505
0.181159
0.177336
0.173581
0.169893
0.166271
0.162714
0.159223
0.155796
0.152432
0.149131
0.145893
0.142715
0.139598
0.136541
0.133543
0.130604
0.127721
0.124896
0.122126
0.119411
0.116751
0.114144
0.111589
0.109087
0.106635
0.104234
0.101882
0.0995787
0.0973232
0.0951147
0.0929525
0.0908356
0.0887635
0.0867351
0.0847499
0.082807
0.0809057
0.0790452
0.0772248
0.0754437
0.0737013
0.0719967
0.0703293
0.0686983
0.0671031
0.065543
0.0640173
0.0625254
0.0610665
0.05964
0.0582453
0.0568817
0.0555486
0.0542454
0.0529715
0.0517263
0.0505092
0.0493196
0.0481569
0.0470207
0.0459103
0.0448251
0.0437648
0.0427287
0.0417163
0.0407271
0.0397606
0.0388164
0.037894
0.0369928
0.0361124
0.0352524
0.0344124
0.0335918
0.0327903
0.0320075
0.0312429
0.0304961
0.0297667
0.0290544
0.0283588
0.0276794
0.027016
0.0263681
0.0257355
0.0251178
0.0245146
0.0239256
0.0233505
0.0227889
0.0222407
0.0217054
0.0211827
0.0206725
0.0201743
0.019688
0.0192132
0.0187496
0.0182971
0.0178554
0.0174241
0.0170032
0.0165923
0.0161911
0.0157996
0.0154174
0.0150443
0.0146801
0.0143247
0.0139777
0.0136391
0.0133085
0.0129859
0.012671
0.0123637
0.0120637
0.011771
0.0114853
0.0112064
0.0109343
0.0106686
0.0104094
0.0101564
0.00990954
0.00966859
0.00943345
0.00920397
0.00898002
0.00876147
0.0085482
0.00834006
0.00813696
0.00793875
0.00774533
0.00755659
0.0073724
0.00719267
0.00701728
0.00684613
0.00667912
0.00651614
0.00635712
0.00620194
0.00605052
0.00590276
0.00575858
0.0056179
0.00548062
0.00534667
0.00521596
0.00508842
0.00496398
0.00484255
0.00472407
0.00460846
0.00449565
0.00438559
0.00427819
0.0041734
0.00407115
0.00397139
0.00387405
0.00377907
0.0036864
0.00359598
0.00350775
0.00342167
0.00333768
0.00325573
0.00317578
0.00309776
0.00302165
0.00294738
0.00287492
0.00280423
0.00273525
0.00266795
0.00260228
0.00253822
0.00247571
0.00241473
0.00235523
0.00229717
0.00224053
0.00218527
0.00213136
0.00207876
0.00202743
0.00197736
0.00192851
0.00188085
0.00183435
0.00178898
0.00174472
0.00170154
0.00165941
0.00161831
0.00157821
0.00153908
0.00150092
0.00146368
0.00142735
0.00139191
0.00135733
0.00132359
0.00129068
0.00125858
0.00122725
0.0011967
0.00116688
0.0011378
0.00110943
0.00108175
0.00105475
0.0010284
0.0010027
0.000977634
0.000953177
0.000929318
0.000906044
0.000883339
0.00086119
0.000839584
0.000818506
0.000797946
0.000777889
0.000758324
0.000739238
0.000720621
0.00070246
0.000684745
0.000667465
0.00065061
0.000634168
0.000618131
0.000602488
0.000587229
0.000572346
0.000557829
0.000543669
0.000529858
0.000516387
0.000503249
0.000490434
0.000477935
0.000465745
0.000453856
0.00044226
0.000430951
0.000419922
0.000409165
0.000398675
0.000388444
0.000378467
0.000368737
0.000359249
0.000349996
0.000340973
0.000332175
0.000323595
0.000315228
0.00030707
0.000299116
0.00029136
0.000283798
0.000276424
0.000269236
0.000262227
0.000255394
0.000248733
0.000242239
0.000235909
0.000229739
0.000223724
0.000217862
0.000212149
0.000206581
0.000201155
0.000195869
0.000190718
0.000185699
0.000180811
0.000176051
0.000171415
0.000166901
0.000162507
0.000158232
0.000154072
0.000150026
0.000146092
0.000142269
0.000138556
0.000134952
0.000131455
0.000128067
0.000124785
0.000121611
0.000118545
0.000115588
0.000112741
0.000110007
0.000107388
0.000104887
0.000102509
0.000100257
9.81386e-05
9.61589e-05
9.4326e-05
9.26486e-05
9.11368e-05
8.98016e-05
8.86553e-05
8.77112e-05
8.69834e-05
8.6486e-05
8.6232e-05
)
;
    }
    Wall
    {
        type            calculated;
        value           nonuniform List<scalar> 
400
(
0.723392
0.709436
0.699198
0.689839
0.680945
0.67248
0.664345
0.656451
0.648735
0.641153
0.633669
0.626259
0.618901
0.611582
0.604288
0.597012
0.589747
0.58249
0.575236
0.567986
0.560737
0.553491
0.546249
0.539011
0.531779
0.524555
0.517341
0.510141
0.502955
0.495786
0.488637
0.481511
0.474409
0.467335
0.460291
0.453279
0.446301
0.439361
0.432459
0.425599
0.418783
0.412012
0.405289
0.398615
0.391993
0.385423
0.378909
0.372451
0.366051
0.35971
0.35343
0.347212
0.341057
0.334967
0.328943
0.322985
0.317094
0.311272
0.305518
0.299835
0.294221
0.288679
0.283208
0.277809
0.272482
0.267227
0.262045
0.256936
0.251901
0.246938
0.242048
0.237231
0.232487
0.227817
0.223218
0.218692
0.214239
0.209857
0.205546
0.201307
0.197138
0.19304
0.189011
0.185051
0.181161
0.177338
0.173583
0.169894
0.166272
0.162716
0.159225
0.155797
0.152434
0.149133
0.145894
0.142717
0.1396
0.136543
0.133545
0.130605
0.127723
0.124897
0.122127
0.119412
0.116752
0.114145
0.11159
0.109088
0.106636
0.104235
0.101883
0.0995798
0.0973243
0.0951158
0.0929535
0.0908367
0.0887645
0.0867361
0.0847509
0.082808
0.0809067
0.0790462
0.0772257
0.0754446
0.0737021
0.0719975
0.0703301
0.0686991
0.0671039
0.0655438
0.0640181
0.0625261
0.0610672
0.0596407
0.058246
0.0568824
0.0555493
0.0542461
0.0529722
0.0517269
0.0505098
0.0493202
0.0481575
0.0470213
0.0459108
0.0448257
0.0437653
0.0427292
0.0417168
0.0407276
0.0397611
0.0388169
0.0378944
0.0369933
0.0361129
0.0352529
0.0344128
0.0335923
0.0327908
0.0320079
0.0312433
0.0304965
0.0297671
0.0290548
0.0283591
0.0276798
0.0270164
0.0263685
0.0257359
0.0251181
0.0245149
0.0239259
0.0233508
0.0227892
0.022241
0.0217057
0.021183
0.0206728
0.0201746
0.0196882
0.0192134
0.0187499
0.0182974
0.0178556
0.0174244
0.0170034
0.0165925
0.0161914
0.0157998
0.0154176
0.0150445
0.0146803
0.0143249
0.0139779
0.0136393
0.0133087
0.0129861
0.0126712
0.0123639
0.0120639
0.0117712
0.0114854
0.0112066
0.0109344
0.0106688
0.0104096
0.0101566
0.0099097
0.00966874
0.00943359
0.00920411
0.00898016
0.00876161
0.00854833
0.0083402
0.00813709
0.00793888
0.00774546
0.00755671
0.00737252
0.00719278
0.00701739
0.00684624
0.00667922
0.00651625
0.00635722
0.00620204
0.00605062
0.00590286
0.00575868
0.00561799
0.00548071
0.00534676
0.00521605
0.00508851
0.00496406
0.00484263
0.00472415
0.00460854
0.00449573
0.00438566
0.00427826
0.00417347
0.00407122
0.00397146
0.00387411
0.00377913
0.00368646
0.00359604
0.00350781
0.00342173
0.00333774
0.00325579
0.00317583
0.00309782
0.0030217
0.00294744
0.00287498
0.00280428
0.0027353
0.002668
0.00260233
0.00253827
0.00247576
0.00241477
0.00235527
0.00229722
0.00224058
0.00218531
0.0021314
0.0020788
0.00202747
0.0019774
0.00192855
0.00188089
0.00183439
0.00178902
0.00174476
0.00170157
0.00165944
0.00161834
0.00157824
0.00153911
0.00150094
0.00146371
0.00142738
0.00139193
0.00135735
0.00132362
0.00129071
0.0012586
0.00122728
0.00119672
0.00116691
0.00113782
0.00110945
0.00108177
0.00105477
0.00102842
0.00100272
0.000977653
0.000953195
0.000929337
0.000906062
0.000883356
0.000861207
0.0008396
0.000818522
0.000797961
0.000777904
0.000758338
0.000739253
0.000720635
0.000702474
0.000684759
0.000667479
0.000650623
0.000634181
0.000618143
0.000602499
0.000587241
0.000572357
0.00055784
0.00054368
0.000529868
0.000516398
0.000503259
0.000490444
0.000477945
0.000465754
0.000453865
0.000442269
0.00043096
0.00041993
0.000409173
0.000398683
0.000388452
0.000378475
0.000368745
0.000359256
0.000350003
0.00034098
0.000332181
0.000323601
0.000315235
0.000307077
0.000299122
0.000291366
0.000283803
0.00027643
0.000269241
0.000262232
0.000255399
0.000248738
0.000242244
0.000235914
0.000229743
0.000223729
0.000217866
0.000212153
0.000206585
0.000201159
0.000195872
0.000190721
0.000185703
0.000180815
0.000176054
0.000171418
0.000166904
0.00016251
0.000158234
0.000154074
0.000150028
0.000146095
0.000142272
0.000138559
0.000134954
0.000131458
0.000128069
0.000124787
0.000121613
0.000118547
0.00011559
0.000112743
0.000110009
0.00010739
0.000104889
0.000102511
0.000100259
9.81404e-05
9.61607e-05
9.43278e-05
9.26504e-05
9.11385e-05
8.98033e-05
8.86571e-05
8.7713e-05
8.69852e-05
8.64876e-05
8.62336e-05
)
;
    }
}


// ************************************************************************* //
