/*--------------------------------*- C++ -*----------------------------------*\
  =========                 |
  \\      /  F ield         | OpenFOAM: The Open Source CFD Toolbox
   \\    /   O peration     | Website:  https://openfoam.org
    \\  /    A nd           | Version:  dev
     \\/     M anipulation  |
\*---------------------------------------------------------------------------*/
FoamFile
{
    format      ascii;
    class       volScalarField;
    location    "0.4";
    object      N1;
}
// * * * * * * * * * * * * * * * * * * * * * * * * * * * * * * * * * * * * * //

dimensions      [0 0 0 0 0 0 0];

internalField   nonuniform List<scalar> 
8000
(
8.64553e-10
2.75426e-09
4.83368e-09
7.09397e-09
9.53648e-09
1.21695e-08
1.50011e-08
1.80398e-08
2.1295e-08
2.47771e-08
2.84969e-08
3.24659e-08
3.66961e-08
4.11995e-08
4.59886e-08
5.10761e-08
5.64748e-08
6.21977e-08
6.82581e-08
7.46692e-08
8.14446e-08
8.85979e-08
9.61428e-08
1.04094e-07
1.12464e-07
1.21269e-07
1.30523e-07
1.4024e-07
1.50436e-07
1.61126e-07
1.72326e-07
1.84051e-07
1.96317e-07
2.0914e-07
2.22537e-07
2.36525e-07
2.51121e-07
2.66342e-07
2.82206e-07
2.9873e-07
3.15932e-07
3.33832e-07
3.52447e-07
3.71797e-07
3.919e-07
4.12777e-07
4.34448e-07
4.56932e-07
4.8025e-07
5.04423e-07
5.29471e-07
5.55417e-07
5.82283e-07
6.10089e-07
6.38859e-07
6.68615e-07
6.99381e-07
7.3118e-07
7.64036e-07
7.97972e-07
8.33013e-07
8.69185e-07
9.06511e-07
9.45018e-07
9.84732e-07
1.02568e-06
1.06789e-06
1.11138e-06
1.15618e-06
1.20233e-06
1.24985e-06
1.29876e-06
1.3491e-06
1.4009e-06
1.45418e-06
1.50898e-06
1.56532e-06
1.62323e-06
1.68275e-06
1.74391e-06
1.80674e-06
1.87127e-06
1.93753e-06
2.00556e-06
2.07538e-06
2.14704e-06
2.22056e-06
2.29598e-06
2.37333e-06
2.45264e-06
2.53396e-06
2.61731e-06
2.70273e-06
2.79026e-06
2.87992e-06
2.97177e-06
3.06582e-06
3.16213e-06
3.26071e-06
3.36162e-06
3.46488e-06
3.57054e-06
3.67862e-06
3.78918e-06
3.90223e-06
4.01782e-06
4.13599e-06
4.25677e-06
4.3802e-06
4.50632e-06
4.63516e-06
4.76676e-06
4.90115e-06
5.03837e-06
5.17846e-06
5.32145e-06
5.46738e-06
5.61628e-06
5.76819e-06
5.92314e-06
6.08117e-06
6.24231e-06
6.40659e-06
6.57405e-06
6.74472e-06
6.91863e-06
7.09581e-06
7.27629e-06
7.46011e-06
7.64729e-06
7.83786e-06
8.03186e-06
8.22929e-06
8.43021e-06
8.63462e-06
8.84255e-06
9.05404e-06
9.26909e-06
9.48774e-06
9.71e-06
9.93589e-06
1.01654e-05
1.03986e-05
1.06356e-05
1.08762e-05
1.11205e-05
1.13685e-05
1.16203e-05
1.18758e-05
1.21351e-05
1.23982e-05
1.2665e-05
1.29356e-05
1.32099e-05
1.34881e-05
1.377e-05
1.40557e-05
1.43451e-05
1.46383e-05
1.49353e-05
1.5236e-05
1.55405e-05
1.58486e-05
1.61605e-05
1.6476e-05
1.67952e-05
1.7118e-05
1.74445e-05
1.77746e-05
1.81082e-05
1.84453e-05
1.8786e-05
1.91301e-05
1.94776e-05
1.98285e-05
2.01828e-05
2.05404e-05
2.09012e-05
2.12653e-05
2.16325e-05
2.20028e-05
2.23762e-05
2.27525e-05
2.31318e-05
2.35139e-05
2.38989e-05
2.42866e-05
2.4677e-05
2.50699e-05
2.54654e-05
2.58633e-05
2.62636e-05
2.66661e-05
2.70709e-05
2.74778e-05
2.78867e-05
2.82975e-05
2.87101e-05
2.91245e-05
2.95406e-05
2.99582e-05
3.03772e-05
3.07976e-05
3.12192e-05
3.16419e-05
3.20656e-05
3.24903e-05
3.29157e-05
3.33417e-05
3.37684e-05
3.41954e-05
3.46228e-05
3.50503e-05
3.54779e-05
3.59055e-05
3.63328e-05
3.67598e-05
3.71864e-05
3.76123e-05
3.80375e-05
3.84619e-05
3.88852e-05
3.93075e-05
3.97284e-05
4.01479e-05
4.05659e-05
4.09822e-05
4.13966e-05
4.18091e-05
4.22194e-05
4.26274e-05
4.30331e-05
4.34362e-05
4.38365e-05
4.42341e-05
4.46286e-05
4.502e-05
4.54081e-05
4.57928e-05
4.61739e-05
4.65513e-05
4.69249e-05
4.72944e-05
4.76598e-05
4.80209e-05
4.83776e-05
4.87298e-05
4.90772e-05
4.94198e-05
4.97575e-05
5.009e-05
5.04173e-05
5.07392e-05
5.10556e-05
5.13664e-05
5.16714e-05
5.19706e-05
5.22637e-05
5.25508e-05
5.28316e-05
5.3106e-05
5.3374e-05
5.36354e-05
5.38902e-05
5.41381e-05
5.43791e-05
5.46132e-05
5.48401e-05
5.50599e-05
5.52724e-05
5.54775e-05
5.56752e-05
5.58653e-05
5.60478e-05
5.62226e-05
5.63897e-05
5.65489e-05
5.67003e-05
5.68436e-05
5.6979e-05
5.71062e-05
5.72253e-05
5.73363e-05
5.7439e-05
5.75335e-05
5.76196e-05
5.76975e-05
5.77669e-05
5.7828e-05
5.78806e-05
5.79248e-05
5.79606e-05
5.79879e-05
5.80067e-05
5.80171e-05
5.8019e-05
5.80125e-05
5.79975e-05
5.7974e-05
5.79421e-05
5.79018e-05
5.7853e-05
5.77959e-05
5.77305e-05
5.76568e-05
5.75748e-05
5.74846e-05
5.73862e-05
5.72797e-05
5.71651e-05
5.70426e-05
5.6912e-05
5.67736e-05
5.66273e-05
5.64733e-05
5.63116e-05
5.61423e-05
5.59655e-05
5.57812e-05
5.55895e-05
5.53906e-05
5.51845e-05
5.49713e-05
5.47511e-05
5.45241e-05
5.42902e-05
5.40496e-05
5.38025e-05
5.35489e-05
5.32889e-05
5.30227e-05
5.27504e-05
5.2472e-05
5.21878e-05
5.18978e-05
5.16022e-05
5.1301e-05
5.09945e-05
5.06827e-05
5.03658e-05
5.00439e-05
4.97172e-05
4.93857e-05
4.90497e-05
4.87093e-05
4.83646e-05
4.80157e-05
4.76629e-05
4.73062e-05
4.69459e-05
4.6582e-05
4.62148e-05
4.58444e-05
4.54709e-05
4.50945e-05
4.47155e-05
4.43339e-05
4.39499e-05
4.35638e-05
4.31757e-05
4.27858e-05
4.23943e-05
4.20014e-05
4.16074e-05
4.12124e-05
4.08166e-05
4.04204e-05
4.0024e-05
3.96276e-05
3.92316e-05
3.88361e-05
3.84416e-05
3.80484e-05
3.76568e-05
3.72673e-05
3.68801e-05
3.64959e-05
3.61151e-05
3.57382e-05
3.53657e-05
3.49984e-05
3.46369e-05
3.42818e-05
3.39341e-05
3.35946e-05
3.32644e-05
3.29443e-05
3.26357e-05
3.23398e-05
3.20579e-05
3.17917e-05
3.15428e-05
3.1313e-05
3.11042e-05
3.09185e-05
3.07582e-05
3.06255e-05
3.05229e-05
3.04526e-05
3.04166e-05
8.46934e-10
2.71502e-09
4.77692e-09
7.02953e-09
9.47246e-09
1.21112e-08
1.49528e-08
1.80053e-08
2.12782e-08
2.47817e-08
2.8527e-08
3.25256e-08
3.67897e-08
4.13317e-08
4.61643e-08
5.13007e-08
5.67538e-08
6.25371e-08
6.86642e-08
7.51488e-08
8.20046e-08
8.92458e-08
9.68867e-08
1.04942e-07
1.13425e-07
1.22352e-07
1.31738e-07
1.41598e-07
1.51947e-07
1.62801e-07
1.74177e-07
1.8609e-07
1.98558e-07
2.11596e-07
2.25223e-07
2.39455e-07
2.5431e-07
2.69806e-07
2.85961e-07
3.02794e-07
3.20323e-07
3.38568e-07
3.57547e-07
3.77282e-07
3.9779e-07
4.19094e-07
4.41213e-07
4.64169e-07
4.87982e-07
5.12674e-07
5.38267e-07
5.64784e-07
5.92246e-07
6.20677e-07
6.501e-07
6.80539e-07
7.12017e-07
7.44558e-07
7.78188e-07
8.12931e-07
8.48813e-07
8.85859e-07
9.24096e-07
9.63549e-07
1.00425e-06
1.04621e-06
1.08948e-06
1.13407e-06
1.18002e-06
1.22735e-06
1.27609e-06
1.32627e-06
1.37792e-06
1.43108e-06
1.48576e-06
1.54201e-06
1.59985e-06
1.65932e-06
1.72044e-06
1.78326e-06
1.84779e-06
1.91408e-06
1.98215e-06
2.05205e-06
2.1238e-06
2.19745e-06
2.27301e-06
2.35053e-06
2.43005e-06
2.5116e-06
2.59521e-06
2.68092e-06
2.76876e-06
2.85878e-06
2.95101e-06
3.04549e-06
3.14224e-06
3.24132e-06
3.34275e-06
3.44658e-06
3.55284e-06
3.66157e-06
3.77281e-06
3.88659e-06
4.00295e-06
4.12194e-06
4.24358e-06
4.36792e-06
4.495e-06
4.62484e-06
4.7575e-06
4.893e-06
5.03139e-06
5.1727e-06
5.31696e-06
5.46423e-06
5.61452e-06
5.76789e-06
5.92436e-06
6.08397e-06
6.24675e-06
6.41275e-06
6.58199e-06
6.75451e-06
6.93034e-06
7.10952e-06
7.29207e-06
7.47804e-06
7.66744e-06
7.86032e-06
8.0567e-06
8.25661e-06
8.46008e-06
8.66713e-06
8.8778e-06
9.0921e-06
9.31007e-06
9.53172e-06
9.75708e-06
9.98618e-06
1.0219e-05
1.04556e-05
1.0696e-05
1.09403e-05
1.11883e-05
1.14402e-05
1.16959e-05
1.19554e-05
1.22189e-05
1.24862e-05
1.27574e-05
1.30325e-05
1.33115e-05
1.35944e-05
1.38812e-05
1.41719e-05
1.44665e-05
1.4765e-05
1.50674e-05
1.53736e-05
1.56837e-05
1.59977e-05
1.63155e-05
1.66371e-05
1.69625e-05
1.72918e-05
1.76247e-05
1.79614e-05
1.83019e-05
1.8646e-05
1.89937e-05
1.93451e-05
1.97001e-05
2.00586e-05
2.04206e-05
2.0786e-05
2.11549e-05
2.15272e-05
2.19027e-05
2.22816e-05
2.26636e-05
2.30488e-05
2.34371e-05
2.38284e-05
2.42227e-05
2.46199e-05
2.50199e-05
2.54227e-05
2.58282e-05
2.62363e-05
2.66469e-05
2.70599e-05
2.74754e-05
2.78931e-05
2.83129e-05
2.87349e-05
2.91589e-05
2.95848e-05
3.00125e-05
3.04419e-05
3.08729e-05
3.13054e-05
3.17393e-05
3.21744e-05
3.26108e-05
3.30482e-05
3.34865e-05
3.39257e-05
3.43655e-05
3.48059e-05
3.52468e-05
3.5688e-05
3.61294e-05
3.65709e-05
3.70123e-05
3.74535e-05
3.78944e-05
3.83348e-05
3.87747e-05
3.92138e-05
3.9652e-05
4.00892e-05
4.05252e-05
4.09599e-05
4.13932e-05
4.18248e-05
4.22548e-05
4.26828e-05
4.31088e-05
4.35327e-05
4.39542e-05
4.43732e-05
4.47896e-05
4.52032e-05
4.56139e-05
4.60215e-05
4.64259e-05
4.68269e-05
4.72243e-05
4.76182e-05
4.80081e-05
4.83942e-05
4.87761e-05
4.91537e-05
4.95269e-05
4.98956e-05
5.02596e-05
5.06187e-05
5.09729e-05
5.13219e-05
5.16657e-05
5.20041e-05
5.23369e-05
5.26641e-05
5.29855e-05
5.3301e-05
5.36104e-05
5.39136e-05
5.42105e-05
5.4501e-05
5.47849e-05
5.50622e-05
5.53327e-05
5.55963e-05
5.58529e-05
5.61024e-05
5.63447e-05
5.65796e-05
5.68072e-05
5.70273e-05
5.72397e-05
5.74445e-05
5.76415e-05
5.78306e-05
5.80118e-05
5.8185e-05
5.83502e-05
5.85071e-05
5.86559e-05
5.87964e-05
5.89285e-05
5.90523e-05
5.91676e-05
5.92744e-05
5.93727e-05
5.94625e-05
5.95436e-05
5.96161e-05
5.96799e-05
5.97351e-05
5.97815e-05
5.98192e-05
5.98482e-05
5.98684e-05
5.988e-05
5.98827e-05
5.98769e-05
5.98622e-05
5.98388e-05
5.98066e-05
5.97658e-05
5.97163e-05
5.96582e-05
5.95914e-05
5.95161e-05
5.94322e-05
5.93399e-05
5.92391e-05
5.913e-05
5.90125e-05
5.88867e-05
5.87527e-05
5.86106e-05
5.84603e-05
5.83021e-05
5.81359e-05
5.79619e-05
5.77801e-05
5.75906e-05
5.73934e-05
5.71888e-05
5.69767e-05
5.67573e-05
5.65307e-05
5.6297e-05
5.60562e-05
5.58086e-05
5.55541e-05
5.52929e-05
5.50252e-05
5.4751e-05
5.44705e-05
5.41837e-05
5.38909e-05
5.35921e-05
5.32875e-05
5.29772e-05
5.26613e-05
5.23399e-05
5.20133e-05
5.16815e-05
5.13447e-05
5.10031e-05
5.06567e-05
5.03057e-05
4.99503e-05
4.95906e-05
4.92268e-05
4.8859e-05
4.84874e-05
4.81122e-05
4.77335e-05
4.73514e-05
4.69662e-05
4.6578e-05
4.6187e-05
4.57934e-05
4.53973e-05
4.4999e-05
4.45986e-05
4.41963e-05
4.37924e-05
4.3387e-05
4.29804e-05
4.25727e-05
4.21644e-05
4.17554e-05
4.13463e-05
4.09371e-05
4.05283e-05
4.01201e-05
3.97128e-05
3.93068e-05
3.89025e-05
3.85003e-05
3.81005e-05
3.77036e-05
3.73103e-05
3.69209e-05
3.6536e-05
3.61564e-05
3.57827e-05
3.54157e-05
3.50561e-05
3.4705e-05
3.43632e-05
3.4032e-05
3.37124e-05
3.34058e-05
3.31137e-05
3.28375e-05
3.25791e-05
3.23403e-05
3.2123e-05
3.19296e-05
3.17622e-05
3.16234e-05
3.15156e-05
3.14414e-05
3.14033e-05
8.31089e-10
2.66624e-09
4.68994e-09
6.90796e-09
9.32339e-09
1.19407e-08
1.47661e-08
1.78071e-08
2.10725e-08
2.45725e-08
2.83179e-08
3.23205e-08
3.65924e-08
4.11461e-08
4.59945e-08
5.11509e-08
5.66286e-08
6.24411e-08
6.86024e-08
7.51263e-08
8.2027e-08
8.9319e-08
9.70168e-08
1.05135e-07
1.13689e-07
1.22694e-07
1.32165e-07
1.42118e-07
1.52569e-07
1.63534e-07
1.7503e-07
1.87074e-07
1.99682e-07
2.12871e-07
2.26661e-07
2.41067e-07
2.56109e-07
2.71805e-07
2.88174e-07
3.05234e-07
3.23006e-07
3.41508e-07
3.60761e-07
3.80785e-07
4.01601e-07
4.23229e-07
4.45691e-07
4.69008e-07
4.93203e-07
5.18297e-07
5.44312e-07
5.71273e-07
5.99202e-07
6.28122e-07
6.58058e-07
6.89034e-07
7.21075e-07
7.54205e-07
7.8845e-07
8.23836e-07
8.60388e-07
8.98133e-07
9.37099e-07
9.77312e-07
1.0188e-06
1.06159e-06
1.10571e-06
1.15119e-06
1.19806e-06
1.24635e-06
1.29609e-06
1.3473e-06
1.40002e-06
1.45429e-06
1.51012e-06
1.56756e-06
1.62663e-06
1.68737e-06
1.74981e-06
1.81398e-06
1.87992e-06
1.94766e-06
2.01723e-06
2.08868e-06
2.16202e-06
2.23731e-06
2.31457e-06
2.39384e-06
2.47516e-06
2.55856e-06
2.64408e-06
2.73175e-06
2.82162e-06
2.91372e-06
3.00808e-06
3.10475e-06
3.20377e-06
3.30517e-06
3.40898e-06
3.51526e-06
3.62403e-06
3.73534e-06
3.84922e-06
3.96572e-06
4.08486e-06
4.2067e-06
4.33127e-06
4.45861e-06
4.58876e-06
4.72175e-06
4.85763e-06
4.99643e-06
5.13819e-06
5.28296e-06
5.43076e-06
5.58164e-06
5.73564e-06
5.89279e-06
6.05312e-06
6.21669e-06
6.38351e-06
6.55363e-06
6.72709e-06
6.90391e-06
7.08414e-06
7.26781e-06
7.45494e-06
7.64558e-06
7.83975e-06
8.03749e-06
8.23883e-06
8.4438e-06
8.65242e-06
8.86473e-06
9.08075e-06
9.3005e-06
9.52403e-06
9.75134e-06
9.98246e-06
1.02174e-05
1.04562e-05
1.06989e-05
1.09455e-05
1.1196e-05
1.14504e-05
1.17088e-05
1.19711e-05
1.22374e-05
1.25077e-05
1.2782e-05
1.30602e-05
1.33425e-05
1.36287e-05
1.3919e-05
1.42133e-05
1.45116e-05
1.48139e-05
1.51202e-05
1.54305e-05
1.57448e-05
1.60631e-05
1.63853e-05
1.67115e-05
1.70416e-05
1.73757e-05
1.77136e-05
1.80554e-05
1.8401e-05
1.87505e-05
1.91038e-05
1.94608e-05
1.98215e-05
2.0186e-05
2.0554e-05
2.09257e-05
2.1301e-05
2.16798e-05
2.2062e-05
2.24477e-05
2.28367e-05
2.32291e-05
2.36247e-05
2.40235e-05
2.44254e-05
2.48303e-05
2.52383e-05
2.56492e-05
2.60629e-05
2.64795e-05
2.68987e-05
2.73205e-05
2.77448e-05
2.81716e-05
2.86008e-05
2.90322e-05
2.94657e-05
2.99014e-05
3.0339e-05
3.07785e-05
3.12198e-05
3.16627e-05
3.21072e-05
3.25531e-05
3.30004e-05
3.34488e-05
3.38984e-05
3.4349e-05
3.48004e-05
3.52525e-05
3.57053e-05
3.61586e-05
3.66122e-05
3.7066e-05
3.75199e-05
3.79738e-05
3.84275e-05
3.88809e-05
3.93338e-05
3.97861e-05
4.02377e-05
4.06884e-05
4.1138e-05
4.15865e-05
4.20337e-05
4.24794e-05
4.29235e-05
4.33658e-05
4.38062e-05
4.42446e-05
4.46807e-05
4.51144e-05
4.55456e-05
4.59741e-05
4.63998e-05
4.68225e-05
4.72421e-05
4.76583e-05
4.80711e-05
4.84804e-05
4.88858e-05
4.92874e-05
4.96849e-05
5.00781e-05
5.04671e-05
5.08515e-05
5.12312e-05
5.16062e-05
5.19761e-05
5.2341e-05
5.27007e-05
5.30549e-05
5.34036e-05
5.37467e-05
5.40839e-05
5.44153e-05
5.47405e-05
5.50595e-05
5.53722e-05
5.56784e-05
5.59781e-05
5.6271e-05
5.65571e-05
5.68362e-05
5.71083e-05
5.73731e-05
5.76307e-05
5.78809e-05
5.81236e-05
5.83587e-05
5.85861e-05
5.88056e-05
5.90173e-05
5.92211e-05
5.94167e-05
5.96042e-05
5.97835e-05
5.99545e-05
6.01171e-05
6.02713e-05
6.0417e-05
6.05541e-05
6.06826e-05
6.08024e-05
6.09135e-05
6.10159e-05
6.11094e-05
6.11942e-05
6.127e-05
6.13369e-05
6.13949e-05
6.1444e-05
6.14841e-05
6.15152e-05
6.15374e-05
6.15505e-05
6.15547e-05
6.155e-05
6.15363e-05
6.15135e-05
6.14818e-05
6.14411e-05
6.13915e-05
6.13331e-05
6.12657e-05
6.11896e-05
6.11047e-05
6.10111e-05
6.09088e-05
6.07978e-05
6.06783e-05
6.05502e-05
6.04137e-05
6.02688e-05
6.01156e-05
5.99541e-05
5.97845e-05
5.96068e-05
5.9421e-05
5.92274e-05
5.90259e-05
5.88167e-05
5.85998e-05
5.83753e-05
5.81435e-05
5.79043e-05
5.76578e-05
5.74043e-05
5.71437e-05
5.68762e-05
5.6602e-05
5.63211e-05
5.60336e-05
5.57398e-05
5.54397e-05
5.51334e-05
5.48212e-05
5.4503e-05
5.41791e-05
5.38496e-05
5.35147e-05
5.31744e-05
5.28289e-05
5.24784e-05
5.2123e-05
5.17629e-05
5.13982e-05
5.10291e-05
5.06558e-05
5.02783e-05
4.98969e-05
4.95117e-05
4.91229e-05
4.87306e-05
4.83351e-05
4.79365e-05
4.7535e-05
4.71308e-05
4.6724e-05
4.63149e-05
4.59036e-05
4.54903e-05
4.50753e-05
4.46588e-05
4.4241e-05
4.38221e-05
4.34025e-05
4.29822e-05
4.25616e-05
4.2141e-05
4.17207e-05
4.1301e-05
4.08822e-05
4.04647e-05
4.00488e-05
3.9635e-05
3.92236e-05
3.88153e-05
3.84104e-05
3.80095e-05
3.76132e-05
3.72222e-05
3.68371e-05
3.64588e-05
3.60881e-05
3.57259e-05
3.53732e-05
3.50311e-05
3.47009e-05
3.43838e-05
3.40814e-05
3.37953e-05
3.35271e-05
3.32789e-05
3.30527e-05
3.28508e-05
3.26757e-05
3.25299e-05
3.24162e-05
3.23375e-05
3.22967e-05
8.15333e-10
2.61514e-09
4.5968e-09
6.77045e-09
9.14328e-09
1.17214e-08
1.45116e-08
1.75214e-08
2.07598e-08
2.42365e-08
2.79625e-08
3.19492e-08
3.62088e-08
4.07537e-08
4.55969e-08
5.07517e-08
5.62314e-08
6.20498e-08
6.82208e-08
7.47585e-08
8.16774e-08
8.8992e-08
9.67171e-08
1.04868e-07
1.13459e-07
1.22507e-07
1.32028e-07
1.42036e-07
1.52549e-07
1.63584e-07
1.75156e-07
1.87284e-07
1.99984e-07
2.13275e-07
2.27174e-07
2.417e-07
2.56872e-07
2.72708e-07
2.89227e-07
3.0645e-07
3.24395e-07
3.43083e-07
3.62535e-07
3.82772e-07
4.03813e-07
4.25682e-07
4.48399e-07
4.71987e-07
4.96469e-07
5.21866e-07
5.48203e-07
5.75502e-07
6.03787e-07
6.33083e-07
6.63415e-07
6.94806e-07
7.27283e-07
7.6087e-07
7.95595e-07
8.31483e-07
8.68561e-07
9.06856e-07
9.46395e-07
9.87208e-07
1.02932e-06
1.07276e-06
1.11756e-06
1.16375e-06
1.21136e-06
1.26041e-06
1.31095e-06
1.36299e-06
1.41657e-06
1.47172e-06
1.52848e-06
1.58688e-06
1.64694e-06
1.70871e-06
1.77222e-06
1.83749e-06
1.90457e-06
1.97349e-06
2.04428e-06
2.11698e-06
2.19163e-06
2.26826e-06
2.3469e-06
2.4276e-06
2.51039e-06
2.59531e-06
2.68239e-06
2.77168e-06
2.86321e-06
2.95701e-06
3.05314e-06
3.15162e-06
3.2525e-06
3.35581e-06
3.46159e-06
3.56989e-06
3.68074e-06
3.79418e-06
3.91025e-06
4.02899e-06
4.15045e-06
4.27466e-06
4.40165e-06
4.53148e-06
4.66418e-06
4.79979e-06
4.93835e-06
5.0799e-06
5.22448e-06
5.37213e-06
5.52288e-06
5.67679e-06
5.83387e-06
5.99418e-06
6.15775e-06
6.32463e-06
6.49483e-06
6.66841e-06
6.8454e-06
7.02584e-06
7.20976e-06
7.39719e-06
7.58817e-06
7.78274e-06
7.98092e-06
8.18275e-06
8.38827e-06
8.59749e-06
8.81046e-06
9.0272e-06
9.24774e-06
9.4721e-06
9.70031e-06
9.93241e-06
1.01684e-05
1.04083e-05
1.06522e-05
1.09e-05
1.11518e-05
1.14077e-05
1.16675e-05
1.19314e-05
1.21993e-05
1.24713e-05
1.27474e-05
1.30276e-05
1.33118e-05
1.36002e-05
1.38927e-05
1.41892e-05
1.44899e-05
1.47947e-05
1.51036e-05
1.54166e-05
1.57336e-05
1.60548e-05
1.63801e-05
1.67094e-05
1.70427e-05
1.73801e-05
1.77215e-05
1.80669e-05
1.84163e-05
1.87696e-05
1.91269e-05
1.9488e-05
1.9853e-05
2.02218e-05
2.05944e-05
2.09707e-05
2.13508e-05
2.17345e-05
2.21218e-05
2.25127e-05
2.29071e-05
2.33049e-05
2.37062e-05
2.41107e-05
2.45186e-05
2.49297e-05
2.53439e-05
2.57613e-05
2.61816e-05
2.66048e-05
2.70309e-05
2.74598e-05
2.78914e-05
2.83255e-05
2.87622e-05
2.92013e-05
2.96428e-05
3.00865e-05
3.05323e-05
3.09802e-05
3.143e-05
3.18816e-05
3.2335e-05
3.27899e-05
3.32464e-05
3.37042e-05
3.41634e-05
3.46236e-05
3.50849e-05
3.55471e-05
3.60101e-05
3.64737e-05
3.69378e-05
3.74024e-05
3.78671e-05
3.8332e-05
3.87969e-05
3.92616e-05
3.9726e-05
4.019e-05
4.06534e-05
4.1116e-05
4.15778e-05
4.20385e-05
4.24981e-05
4.29563e-05
4.34131e-05
4.38682e-05
4.43216e-05
4.4773e-05
4.52223e-05
4.56693e-05
4.6114e-05
4.65561e-05
4.69954e-05
4.74319e-05
4.78654e-05
4.82957e-05
4.87226e-05
4.9146e-05
4.95658e-05
4.99817e-05
5.03937e-05
5.08016e-05
5.12051e-05
5.16042e-05
5.19987e-05
5.23885e-05
5.27734e-05
5.31532e-05
5.35278e-05
5.38971e-05
5.42609e-05
5.46191e-05
5.49714e-05
5.53179e-05
5.56583e-05
5.59925e-05
5.63203e-05
5.66417e-05
5.69565e-05
5.72646e-05
5.75658e-05
5.786e-05
5.81471e-05
5.84271e-05
5.86996e-05
5.89648e-05
5.92223e-05
5.94722e-05
5.97144e-05
5.99486e-05
6.01749e-05
6.03932e-05
6.06033e-05
6.08051e-05
6.09986e-05
6.11837e-05
6.13603e-05
6.15284e-05
6.16878e-05
6.18385e-05
6.19805e-05
6.21137e-05
6.2238e-05
6.23534e-05
6.24598e-05
6.25572e-05
6.26455e-05
6.27248e-05
6.2795e-05
6.2856e-05
6.29079e-05
6.29506e-05
6.29841e-05
6.30084e-05
6.30235e-05
6.30293e-05
6.30261e-05
6.30138e-05
6.29921e-05
6.29613e-05
6.29212e-05
6.28721e-05
6.28138e-05
6.27465e-05
6.26701e-05
6.25847e-05
6.24904e-05
6.23872e-05
6.22752e-05
6.21543e-05
6.20247e-05
6.18865e-05
6.17396e-05
6.15842e-05
6.14203e-05
6.12481e-05
6.10676e-05
6.08788e-05
6.06819e-05
6.0477e-05
6.02641e-05
6.00434e-05
5.9815e-05
5.95789e-05
5.93352e-05
5.90842e-05
5.88258e-05
5.85602e-05
5.82876e-05
5.8008e-05
5.77215e-05
5.74284e-05
5.71286e-05
5.68224e-05
5.65099e-05
5.61912e-05
5.58665e-05
5.55359e-05
5.51995e-05
5.48574e-05
5.45099e-05
5.41571e-05
5.37991e-05
5.3436e-05
5.30681e-05
5.26955e-05
5.23183e-05
5.19368e-05
5.1551e-05
5.11611e-05
5.07674e-05
5.03699e-05
4.99688e-05
4.95644e-05
4.91568e-05
4.87462e-05
4.83327e-05
4.79166e-05
4.74981e-05
4.70773e-05
4.66545e-05
4.62298e-05
4.58036e-05
4.5376e-05
4.49472e-05
4.45176e-05
4.40874e-05
4.36568e-05
4.32261e-05
4.27956e-05
4.23657e-05
4.19367e-05
4.15089e-05
4.10827e-05
4.06586e-05
4.02369e-05
3.98182e-05
3.94029e-05
3.89917e-05
3.85851e-05
3.81837e-05
3.77883e-05
3.73997e-05
3.70187e-05
3.66462e-05
3.62833e-05
3.59311e-05
3.55909e-05
3.52639e-05
3.49516e-05
3.46558e-05
3.43782e-05
3.41207e-05
3.38856e-05
3.36752e-05
3.34921e-05
3.3339e-05
3.32191e-05
3.31356e-05
3.3092e-05
8.00457e-10
2.56666e-09
4.50858e-09
6.6374e-09
8.9631e-09
1.14942e-08
1.42389e-08
1.72059e-08
2.04046e-08
2.3845e-08
2.75382e-08
3.14955e-08
3.57289e-08
4.02511e-08
4.50747e-08
5.02129e-08
5.56793e-08
6.14874e-08
6.76513e-08
7.41852e-08
8.11034e-08
8.84209e-08
9.61525e-08
1.04313e-07
1.12919e-07
1.21986e-07
1.31529e-07
1.41565e-07
1.52111e-07
1.63184e-07
1.748e-07
1.86978e-07
1.99734e-07
2.13088e-07
2.27057e-07
2.4166e-07
2.56917e-07
2.72846e-07
2.89467e-07
3.068e-07
3.24865e-07
3.43683e-07
3.63275e-07
3.83662e-07
4.04865e-07
4.26907e-07
4.49809e-07
4.73595e-07
4.98287e-07
5.23908e-07
5.50482e-07
5.78033e-07
6.06585e-07
6.36163e-07
6.66792e-07
6.98498e-07
7.31306e-07
7.65242e-07
8.00333e-07
8.36606e-07
8.74087e-07
9.12806e-07
9.52789e-07
9.94066e-07
1.03666e-06
1.08061e-06
1.12594e-06
1.17269e-06
1.22087e-06
1.27052e-06
1.32168e-06
1.37437e-06
1.42863e-06
1.48449e-06
1.54198e-06
1.60114e-06
1.66199e-06
1.72458e-06
1.78893e-06
1.85508e-06
1.92307e-06
1.99293e-06
2.06469e-06
2.1384e-06
2.21409e-06
2.29179e-06
2.37155e-06
2.4534e-06
2.53737e-06
2.62351e-06
2.71186e-06
2.80244e-06
2.89531e-06
2.9905e-06
3.08804e-06
3.18799e-06
3.29037e-06
3.39523e-06
3.50261e-06
3.61255e-06
3.72509e-06
3.84026e-06
3.95812e-06
4.07869e-06
4.20203e-06
4.32817e-06
4.45715e-06
4.58901e-06
4.72379e-06
4.86154e-06
5.00229e-06
5.14609e-06
5.29298e-06
5.44299e-06
5.59616e-06
5.75254e-06
5.91217e-06
6.07507e-06
6.2413e-06
6.41089e-06
6.58388e-06
6.76031e-06
6.94021e-06
7.12362e-06
7.31058e-06
7.50112e-06
7.69528e-06
7.89309e-06
8.09459e-06
8.2998e-06
8.50877e-06
8.72152e-06
8.93809e-06
9.15849e-06
9.38278e-06
9.61096e-06
9.84307e-06
1.00791e-05
1.03192e-05
1.05632e-05
1.08113e-05
1.10634e-05
1.13196e-05
1.15798e-05
1.18442e-05
1.21127e-05
1.23853e-05
1.26621e-05
1.2943e-05
1.32281e-05
1.35173e-05
1.38108e-05
1.41084e-05
1.44103e-05
1.47163e-05
1.50265e-05
1.53409e-05
1.56595e-05
1.59823e-05
1.63092e-05
1.66403e-05
1.69756e-05
1.7315e-05
1.76585e-05
1.80061e-05
1.83578e-05
1.87135e-05
1.90733e-05
1.94371e-05
1.98048e-05
2.01766e-05
2.05522e-05
2.09316e-05
2.1315e-05
2.17021e-05
2.20929e-05
2.24874e-05
2.28856e-05
2.32874e-05
2.36927e-05
2.41015e-05
2.45137e-05
2.49293e-05
2.53482e-05
2.57703e-05
2.61955e-05
2.66239e-05
2.70552e-05
2.74895e-05
2.79266e-05
2.83665e-05
2.8809e-05
2.92541e-05
2.97018e-05
3.01518e-05
3.06041e-05
3.10586e-05
3.15153e-05
3.19739e-05
3.24344e-05
3.28967e-05
3.33606e-05
3.38261e-05
3.42931e-05
3.47613e-05
3.52308e-05
3.57013e-05
3.61727e-05
3.6645e-05
3.7118e-05
3.75915e-05
3.80654e-05
3.85396e-05
3.9014e-05
3.94884e-05
3.99626e-05
4.04366e-05
4.09101e-05
4.1383e-05
4.18553e-05
4.23266e-05
4.2797e-05
4.32661e-05
4.3734e-05
4.42003e-05
4.46651e-05
4.5128e-05
4.5589e-05
4.60478e-05
4.65045e-05
4.69586e-05
4.74102e-05
4.78591e-05
4.8305e-05
4.87479e-05
4.91876e-05
4.96239e-05
5.00566e-05
5.04856e-05
5.09108e-05
5.13319e-05
5.17488e-05
5.21614e-05
5.25695e-05
5.29729e-05
5.33716e-05
5.37652e-05
5.41537e-05
5.4537e-05
5.49148e-05
5.5287e-05
5.56536e-05
5.60142e-05
5.63689e-05
5.67173e-05
5.70595e-05
5.73953e-05
5.77244e-05
5.80469e-05
5.83625e-05
5.86712e-05
5.89727e-05
5.9267e-05
5.9554e-05
5.98335e-05
6.01055e-05
6.03697e-05
6.06262e-05
6.08747e-05
6.11153e-05
6.13477e-05
6.15719e-05
6.17878e-05
6.19953e-05
6.21943e-05
6.23848e-05
6.25666e-05
6.27397e-05
6.29041e-05
6.30595e-05
6.3206e-05
6.33436e-05
6.34721e-05
6.35915e-05
6.37018e-05
6.38029e-05
6.38948e-05
6.39774e-05
6.40507e-05
6.41147e-05
6.41694e-05
6.42147e-05
6.42506e-05
6.42771e-05
6.42943e-05
6.4302e-05
6.43005e-05
6.42897e-05
6.42693e-05
6.42396e-05
6.42005e-05
6.4152e-05
6.40943e-05
6.40274e-05
6.39512e-05
6.38658e-05
6.37712e-05
6.36676e-05
6.3555e-05
6.34333e-05
6.33028e-05
6.31634e-05
6.30151e-05
6.28582e-05
6.26926e-05
6.25185e-05
6.23359e-05
6.21449e-05
6.19455e-05
6.1738e-05
6.15223e-05
6.12986e-05
6.1067e-05
6.08275e-05
6.05804e-05
6.03256e-05
6.00634e-05
5.97938e-05
5.9517e-05
5.9233e-05
5.89421e-05
5.86442e-05
5.83397e-05
5.80285e-05
5.77108e-05
5.73869e-05
5.70567e-05
5.67205e-05
5.63783e-05
5.60304e-05
5.56769e-05
5.53179e-05
5.49537e-05
5.45842e-05
5.42098e-05
5.38305e-05
5.34465e-05
5.30581e-05
5.26653e-05
5.22683e-05
5.18673e-05
5.14624e-05
5.1054e-05
5.0642e-05
5.02267e-05
4.98083e-05
4.9387e-05
4.8963e-05
4.85364e-05
4.81076e-05
4.76766e-05
4.72437e-05
4.68091e-05
4.63731e-05
4.59359e-05
4.54977e-05
4.50589e-05
4.46196e-05
4.41802e-05
4.3741e-05
4.33022e-05
4.28644e-05
4.24277e-05
4.19925e-05
4.15594e-05
4.11287e-05
4.0701e-05
4.02766e-05
3.98562e-05
3.94405e-05
3.903e-05
3.86254e-05
3.82277e-05
3.78375e-05
3.74558e-05
3.70838e-05
3.67224e-05
3.6373e-05
3.60369e-05
3.57156e-05
3.54108e-05
3.51243e-05
3.48581e-05
3.46146e-05
3.4396e-05
3.42052e-05
3.40451e-05
3.39191e-05
3.38308e-05
3.37844e-05
7.87292e-10
2.5236e-09
4.43023e-09
6.51819e-09
8.79885e-09
1.12826e-08
1.39797e-08
1.69e-08
2.00538e-08
2.3452e-08
2.71058e-08
3.10267e-08
3.52268e-08
3.97184e-08
4.45144e-08
4.96277e-08
5.50718e-08
6.08602e-08
6.70069e-08
7.35261e-08
8.04323e-08
8.77403e-08
9.54651e-08
1.03622e-07
1.12227e-07
1.21296e-07
1.30844e-07
1.4089e-07
1.51448e-07
1.62538e-07
1.74175e-07
1.86378e-07
1.99165e-07
2.12554e-07
2.26563e-07
2.41213e-07
2.56522e-07
2.72509e-07
2.89195e-07
3.066e-07
3.24744e-07
3.43649e-07
3.63336e-07
3.83826e-07
4.05141e-07
4.27303e-07
4.50335e-07
4.7426e-07
4.99102e-07
5.24883e-07
5.51628e-07
5.79362e-07
6.08108e-07
6.37893e-07
6.68741e-07
7.00678e-07
7.33731e-07
7.67926e-07
8.0329e-07
8.39851e-07
8.77635e-07
9.16673e-07
9.5699e-07
9.98618e-07
1.04158e-06
1.08592e-06
1.13165e-06
1.17882e-06
1.22744e-06
1.27756e-06
1.32919e-06
1.38239e-06
1.43717e-06
1.49357e-06
1.55163e-06
1.61137e-06
1.67283e-06
1.73605e-06
1.80106e-06
1.8679e-06
1.93659e-06
2.00719e-06
2.07971e-06
2.15421e-06
2.23071e-06
2.30926e-06
2.38989e-06
2.47263e-06
2.55754e-06
2.64464e-06
2.73398e-06
2.82559e-06
2.91951e-06
3.01579e-06
3.11446e-06
3.21556e-06
3.31914e-06
3.42523e-06
3.53387e-06
3.64511e-06
3.75899e-06
3.87554e-06
3.99481e-06
4.11684e-06
4.24167e-06
4.36934e-06
4.4999e-06
4.63338e-06
4.76983e-06
4.90929e-06
5.0518e-06
5.19739e-06
5.34612e-06
5.49802e-06
5.65313e-06
5.81149e-06
5.97315e-06
6.13814e-06
6.3065e-06
6.47827e-06
6.6535e-06
6.83221e-06
7.01445e-06
7.20026e-06
7.38966e-06
7.5827e-06
7.77942e-06
7.97985e-06
8.18401e-06
8.39196e-06
8.60371e-06
8.81931e-06
9.03878e-06
9.26215e-06
9.48946e-06
9.72073e-06
9.95599e-06
1.01953e-05
1.04386e-05
1.0686e-05
1.09374e-05
1.1193e-05
1.14527e-05
1.17166e-05
1.19846e-05
1.22569e-05
1.25333e-05
1.28139e-05
1.30988e-05
1.33879e-05
1.36812e-05
1.39788e-05
1.42807e-05
1.45868e-05
1.48972e-05
1.52118e-05
1.55307e-05
1.58539e-05
1.61813e-05
1.6513e-05
1.68489e-05
1.7189e-05
1.75333e-05
1.78818e-05
1.82345e-05
1.85914e-05
1.89524e-05
1.93174e-05
1.96866e-05
2.00598e-05
2.0437e-05
2.08182e-05
2.12034e-05
2.15924e-05
2.19853e-05
2.23821e-05
2.27825e-05
2.31867e-05
2.35946e-05
2.40061e-05
2.44211e-05
2.48396e-05
2.52616e-05
2.56869e-05
2.61155e-05
2.65473e-05
2.69823e-05
2.74203e-05
2.78613e-05
2.83053e-05
2.8752e-05
2.92015e-05
2.96536e-05
3.01083e-05
3.05655e-05
3.1025e-05
3.14867e-05
3.19506e-05
3.24166e-05
3.28845e-05
3.33542e-05
3.38256e-05
3.42987e-05
3.47732e-05
3.52491e-05
3.57262e-05
3.62044e-05
3.66836e-05
3.71637e-05
3.76444e-05
3.81258e-05
3.86076e-05
3.90897e-05
3.9572e-05
4.00544e-05
4.05366e-05
4.10185e-05
4.15001e-05
4.19811e-05
4.24614e-05
4.29408e-05
4.34192e-05
4.38965e-05
4.43724e-05
4.48468e-05
4.53197e-05
4.57907e-05
4.62597e-05
4.67267e-05
4.71914e-05
4.76536e-05
4.81133e-05
4.85701e-05
4.90241e-05
4.9475e-05
4.99226e-05
5.03668e-05
5.08074e-05
5.12443e-05
5.16773e-05
5.21062e-05
5.25309e-05
5.29512e-05
5.33669e-05
5.3778e-05
5.41842e-05
5.45853e-05
5.49813e-05
5.53719e-05
5.5757e-05
5.61365e-05
5.65102e-05
5.6878e-05
5.72397e-05
5.75951e-05
5.79442e-05
5.82867e-05
5.86226e-05
5.89517e-05
5.92738e-05
5.95889e-05
5.98968e-05
6.01974e-05
6.04905e-05
6.0776e-05
6.10539e-05
6.1324e-05
6.15862e-05
6.18403e-05
6.20863e-05
6.23241e-05
6.25535e-05
6.27746e-05
6.29871e-05
6.3191e-05
6.33862e-05
6.35726e-05
6.37502e-05
6.39189e-05
6.40786e-05
6.42292e-05
6.43706e-05
6.4503e-05
6.4626e-05
6.47398e-05
6.48443e-05
6.49394e-05
6.5025e-05
6.51013e-05
6.5168e-05
6.52253e-05
6.52731e-05
6.53113e-05
6.534e-05
6.53591e-05
6.53687e-05
6.53687e-05
6.53596e-05
6.53406e-05
6.5312e-05
6.5274e-05
6.52264e-05
6.51694e-05
6.5103e-05
6.50272e-05
6.49421e-05
6.48476e-05
6.47439e-05
6.4631e-05
6.4509e-05
6.43779e-05
6.42378e-05
6.40887e-05
6.39307e-05
6.37639e-05
6.35885e-05
6.34043e-05
6.32116e-05
6.30105e-05
6.2801e-05
6.25832e-05
6.23572e-05
6.21231e-05
6.18811e-05
6.16313e-05
6.13736e-05
6.11084e-05
6.08356e-05
6.05555e-05
6.02681e-05
5.99736e-05
5.9672e-05
5.93636e-05
5.90484e-05
5.87267e-05
5.83984e-05
5.80639e-05
5.77231e-05
5.73764e-05
5.70237e-05
5.66653e-05
5.63014e-05
5.5932e-05
5.55573e-05
5.51775e-05
5.47928e-05
5.44033e-05
5.40092e-05
5.36106e-05
5.32078e-05
5.28008e-05
5.23899e-05
5.19753e-05
5.15571e-05
5.11355e-05
5.07107e-05
5.02829e-05
4.98523e-05
4.94191e-05
4.89835e-05
4.85457e-05
4.8106e-05
4.76645e-05
4.72215e-05
4.67772e-05
4.63319e-05
4.58858e-05
4.54393e-05
4.49926e-05
4.4546e-05
4.40999e-05
4.36546e-05
4.32104e-05
4.27677e-05
4.2327e-05
4.18887e-05
4.14532e-05
4.10212e-05
4.05931e-05
4.01695e-05
3.97512e-05
3.93388e-05
3.89331e-05
3.8535e-05
3.81454e-05
3.77654e-05
3.73961e-05
3.70387e-05
3.66946e-05
3.63653e-05
3.60525e-05
3.57581e-05
3.54842e-05
3.5233e-05
3.5007e-05
3.48092e-05
3.46426e-05
3.4511e-05
3.44185e-05
3.43695e-05
7.76263e-10
2.48751e-09
4.36465e-09
6.41807e-09
8.65966e-09
1.11012e-08
1.37543e-08
1.66304e-08
1.97409e-08
2.30974e-08
2.67116e-08
3.05953e-08
3.47607e-08
3.92201e-08
4.39863e-08
4.9072e-08
5.44907e-08
6.02558e-08
6.63812e-08
7.2881e-08
7.97698e-08
8.70622e-08
9.47735e-08
1.02919e-07
1.11515e-07
1.20576e-07
1.3012e-07
1.40163e-07
1.50723e-07
1.61815e-07
1.73459e-07
1.85672e-07
1.98472e-07
2.11878e-07
2.25908e-07
2.40583e-07
2.55921e-07
2.71943e-07
2.88668e-07
3.06117e-07
3.24311e-07
3.43271e-07
3.63019e-07
3.83576e-07
4.04965e-07
4.27208e-07
4.50328e-07
4.74348e-07
4.99292e-07
5.25184e-07
5.52049e-07
5.7991e-07
6.08793e-07
6.38723e-07
6.69727e-07
7.01829e-07
7.35058e-07
7.69439e-07
8.05e-07
8.41769e-07
8.79774e-07
9.19043e-07
9.59606e-07
1.00149e-06
1.04473e-06
1.08935e-06
1.13538e-06