/*--------------------------------*- C++ -*----------------------------------*\
  =========                 |
  \\      /  F ield         | OpenFOAM: The Open Source CFD Toolbox
   \\    /   O peration     | Website:  https://openfoam.org
    \\  /    A nd           | Version:  dev
     \\/     M anipulation  |
\*---------------------------------------------------------------------------*/
FoamFile
{
    format      ascii;
    class       volScalarField;
    location    "0.96";
    object      Exp1;
}
// * * * * * * * * * * * * * * * * * * * * * * * * * * * * * * * * * * * * * //

dimensions      [0 0 0 0 0 0 0];

internalField   uniform 0;

boundaryField
{
    frontAndBack
    {
        type            empty;
    }
    inlet
    {
        type            calculated;
        value           uniform 0;
    }
    outlet
    {
        type            calculated;
        value           uniform 0;
    }
    substrate
    {
        type            calculated;
        value           nonuniform List<scalar> 
400
(
9.28409e-24
2.95703e-23
5.18886e-23
7.61457e-23
1.02358e-22
1.30616e-22
1.6101e-22
1.93632e-22
2.28588e-22
2.65992e-22
3.05964e-22
3.48632e-22
3.94126e-22
4.42585e-22
4.94146e-22
5.48952e-22
6.07148e-22
6.68883e-22
7.34305e-22
8.03569e-22
8.76828e-22
9.54241e-22
1.03597e-21
1.12218e-21
1.21303e-21
1.3087e-21
1.40936e-21
1.51519e-21
1.62636e-21
1.74308e-21
1.86552e-21
1.99388e-21
2.12836e-21
2.26917e-21
2.41651e-21
2.57059e-21
2.73164e-21
2.89988e-21
3.07554e-21
3.25885e-21
3.45006e-21
3.64941e-21
3.85715e-21
4.07356e-21
4.29888e-21
4.53341e-21
4.77741e-21
5.03118e-21
5.29501e-21
5.5692e-21
5.85407e-21
6.14994e-21
6.45713e-21
6.77599e-21
7.10685e-21
7.45008e-21
7.80604e-21
8.1751e-21
8.55766e-21
8.9541e-21
9.36484e-21
9.7903e-21
1.02309e-20
1.06871e-20
1.11593e-20
1.16481e-20
1.21538e-20
1.26771e-20
1.32183e-20
1.37781e-20
1.43569e-20
1.49553e-20
1.5574e-20
1.62134e-20
1.68742e-20
1.75569e-20
1.82624e-20
1.89911e-20
1.97438e-20
2.05212e-20
2.13239e-20
2.21528e-20
2.30086e-20
2.3892e-20
2.48039e-20
2.57451e-20
2.67165e-20
2.77188e-20
2.87531e-20
2.98203e-20
3.09212e-20
3.2057e-20
3.32285e-20
3.44369e-20
3.56832e-20
3.69685e-20
3.8294e-20
3.96608e-20
4.10701e-20
4.25232e-20
4.40213e-20
4.55657e-20
4.71579e-20
4.87991e-20
5.04908e-20
5.22345e-20
5.40317e-20
5.58839e-20
5.77928e-20
5.976e-20
6.17872e-20
6.38761e-20
6.60286e-20
6.82464e-20
7.05315e-20
7.28859e-20
7.53115e-20
7.78105e-20
8.0385e-20
8.30371e-20
8.57691e-20
8.85833e-20
9.14822e-20
9.44682e-20
9.75438e-20
1.00712e-19
1.03974e-19
1.07335e-19
1.10796e-19
1.1436e-19
1.18031e-19
1.21811e-19
1.25704e-19
1.29713e-19
1.33842e-19
1.38093e-19
1.4247e-19
1.46978e-19
1.51619e-19
1.56398e-19
1.61318e-19
1.66384e-19
1.71601e-19
1.76971e-19
1.825e-19
1.88193e-19
1.94054e-19
2.00087e-19
2.06299e-19
2.12694e-19
2.19276e-19
2.26053e-19
2.33029e-19
2.40211e-19
2.47603e-19
2.55212e-19
2.63045e-19
2.71107e-19
2.79406e-19
2.87948e-19
2.9674e-19
3.0579e-19
3.15104e-19
3.24691e-19
3.34558e-19
3.44713e-19
3.55165e-19
3.65921e-19
3.76991e-19
3.88384e-19
4.00109e-19
4.12175e-19
4.24593e-19
4.37371e-19
4.50521e-19
4.64054e-19
4.77979e-19
4.92308e-19
5.07053e-19
5.22226e-19
5.37838e-19
5.53903e-19
5.70432e-19
5.8744e-19
6.0494e-19
6.22945e-19
6.41471e-19
6.60531e-19
6.80142e-19
7.00318e-19
7.21075e-19
7.42431e-19
7.64402e-19
7.87004e-19
8.10257e-19
8.34179e-19
8.58787e-19
8.84102e-19
9.10144e-19
9.36932e-19
9.64489e-19
9.92834e-19
1.02199e-18
1.05198e-18
1.08283e-18
1.11456e-18
1.1472e-18
1.18077e-18
1.2153e-18
1.25081e-18
1.28733e-18
1.32489e-18
1.36352e-18
1.40325e-18
1.44411e-18
1.48613e-18
1.52934e-18
1.57378e-18
1.61948e-18
1.66647e-18
1.7148e-18
1.76449e-18
1.81558e-18
1.86812e-18
1.92214e-18
1.97769e-18
2.0348e-18
2.09352e-18
2.1539e-18
2.21597e-18
2.27979e-18
2.34541e-18
2.41286e-18
2.48221e-18
2.5535e-18
2.62678e-18
2.70212e-18
2.77957e-18
2.85918e-18
2.94101e-18
3.02513e-18
3.1116e-18
3.20047e-18
3.29181e-18
3.3857e-18
3.4822e-18
3.58137e-18
3.6833e-18
3.78806e-18
3.89571e-18
4.00635e-18
4.12005e-18
4.23688e-18
4.35695e-18
4.48032e-18
4.60709e-18
4.73736e-18
4.87121e-18
5.00873e-18
5.15004e-18
5.29522e-18
5.44437e-18
5.59762e-18
5.75505e-18
5.91679e-18
6.08294e-18
6.25363e-18
6.42896e-18
6.60907e-18
6.79408e-18
6.98411e-18
7.1793e-18
7.37978e-18
7.58569e-18
7.79717e-18
8.01436e-18
8.23742e-18
8.46649e-18
8.70173e-18
8.9433e-18
9.19136e-18
9.44608e-18
9.70762e-18
9.97617e-18
1.02519e-17
1.0535e-17
1.08256e-17
1.1124e-17
1.14304e-17
1.17448e-17
1.20677e-17
1.2399e-17
1.27392e-17
1.30883e-17
1.34467e-17
1.38145e-17
1.4192e-17
1.45794e-17
1.49769e-17
1.53849e-17
1.58036e-17
1.62332e-17
1.66739e-17
1.71262e-17
1.75902e-17
1.80663e-17
1.85547e-17
1.90557e-17
1.95696e-17
2.00967e-17
2.06374e-17
2.1192e-17
2.17608e-17
2.23441e-17
2.29422e-17
2.35556e-17
2.41845e-17
2.48293e-17
2.54905e-17
2.61682e-17
2.6863e-17
2.75751e-17
2.83051e-17
2.90532e-17
2.98198e-17
3.06055e-17
3.14105e-17
3.22353e-17
3.30802e-17
3.39458e-17
3.48324e-17
3.57405e-17
3.66704e-17
3.76226e-17
3.85976e-17
3.95957e-17
4.06174e-17
4.16631e-17
4.27332e-17
4.38282e-17
4.49485e-17
4.60944e-17
4.72664e-17
4.84649e-17
4.96903e-17
5.09429e-17
5.2223e-17
5.35312e-17
5.48675e-17
5.62324e-17
5.76262e-17
5.9049e-17
6.05012e-17
6.19828e-17
6.3494e-17
6.50349e-17
6.66056e-17
6.82061e-17
6.98363e-17
7.14961e-17
7.31853e-17
7.49036e-17
7.66506e-17
7.84259e-17
8.0229e-17
8.20591e-17
8.39154e-17
8.57971e-17
8.77029e-17
8.96317e-17
9.15819e-17
9.3552e-17
9.55401e-17
9.75441e-17
9.95617e-17
1.0159e-16
1.03627e-16
1.05668e-16
1.0771e-16
1.0975e-16
1.11782e-16
1.13801e-16
1.15804e-16
1.17782e-16
1.19731e-16
1.21643e-16
1.23509e-16
1.25322e-16
1.27073e-16
1.2875e-16
1.30344e-16
1.31842e-16
1.33231e-16
1.34499e-16
1.3563e-16
1.36609e-16
1.37422e-16
1.38052e-16
1.38484e-16
1.38705e-16
)
;
    }
    Wall
    {
        type            calculated;
        value           nonuniform List<scalar> 
400
(
9.28391e-24
2.95697e-23
5.18876e-23
7.61441e-23
1.02355e-22
1.30613e-22
1.61006e-22
1.93627e-22
2.28582e-22
2.65984e-22
3.05954e-22
3.4862e-22
3.94113e-22
4.42569e-22
4.94127e-22
5.48931e-22
6.07124e-22
6.68856e-22
7.34275e-22
8.03535e-22
8.76791e-22
9.54201e-22
1.03593e-21
1.12213e-21
1.21298e-21
1.30864e-21
1.4093e-21
1.51512e-21
1.6263e-21
1.74301e-21
1.86545e-21
1.9938e-21
2.12828e-21
2.26908e-21
2.41642e-21
2.5705e-21
2.73154e-21
2.89977e-21
3.07543e-21
3.25873e-21
3.44993e-21
3.64928e-21
3.85702e-21
4.07342e-21
4.29874e-21
4.53325e-21
4.77725e-21
5.03101e-21
5.29483e-21
5.56901e-21
5.85388e-21
6.14974e-21
6.45692e-21
6.77577e-21
7.10662e-21
7.44984e-21
7.80578e-21
8.17484e-21
8.55738e-21
8.95381e-21
9.36454e-21
9.78998e-21
1.02306e-20
1.06868e-20
1.1159e-20
1.16477e-20
1.21534e-20
1.26767e-20
1.32179e-20
1.37776e-20
1.43565e-20
1.49549e-20
1.55735e-20
1.62129e-20
1.68737e-20
1.75564e-20
1.82618e-20
1.89905e-20
1.97432e-20
2.05206e-20
2.13233e-20
2.21522e-20
2.30079e-20
2.38913e-20
2.48032e-20
2.57444e-20
2.67157e-20
2.7718e-20
2.87523e-20
2.98194e-20
3.09204e-20
3.20561e-20
3.32276e-20
3.44359e-20
3.56822e-20
3.69675e-20
3.82929e-20
3.96597e-20
4.10689e-20
4.2522e-20
4.402e-20
4.55644e-20
4.71565e-20
4.87977e-20
5.04894e-20
5.2233e-20
5.40302e-20
5.58824e-20
5.77912e-20
5.97583e-20
6.17855e-20
6.38743e-20
6.60267e-20
6.82445e-20
7.05296e-20
7.28839e-20
7.53095e-20
7.78084e-20
8.03827e-20
8.30348e-20
8.57667e-20
8.85809e-20
9.14797e-20
9.44656e-20
9.75412e-20
1.00709e-19
1.03972e-19
1.07332e-19
1.10793e-19
1.14357e-19
1.18028e-19
1.21808e-19
1.25701e-19
1.2971e-19
1.33838e-19
1.38089e-19
1.42466e-19
1.46974e-19
1.51615e-19
1.56393e-19
1.61314e-19
1.6638e-19
1.71596e-19
1.76966e-19
1.82496e-19
1.88188e-19
1.94049e-19
2.00082e-19
2.06293e-19
2.12688e-19
2.19271e-19
2.26047e-19
2.33023e-19
2.40204e-19
2.47596e-19
2.55205e-19
2.63038e-19
2.711e-19
2.79399e-19
2.87941e-19
2.96733e-19
3.05782e-19
3.15096e-19
3.24683e-19
3.34549e-19
3.44704e-19
3.55155e-19
3.65912e-19
3.76982e-19
3.88374e-19
4.00099e-19
4.12165e-19
4.24582e-19
4.3736e-19
4.5051e-19
4.64041e-19
4.77966e-19
4.92295e-19
5.0704e-19
5.22212e-19
5.37824e-19
5.53888e-19
5.70417e-19
5.87424e-19
6.04924e-19
6.22929e-19
6.41454e-19
6.60514e-19
6.80124e-19
7.00299e-19
7.21056e-19
7.42411e-19
7.64381e-19
7.86984e-19
8.10236e-19
8.34157e-19
8.58765e-19
8.84079e-19
9.1012e-19
9.36908e-19
9.64463e-19
9.92808e-19
1.02196e-18
1.05196e-18
1.0828e-18
1.11453e-18
1.14717e-18
1.18074e-18
1.21526e-18
1.25077e-18
1.28729e-18
1.32486e-18
1.36349e-18
1.40322e-18
1.44407e-18
1.48609e-18
1.5293e-18
1.57374e-18
1.61944e-18
1.66643e-18
1.71475e-18
1.76444e-18
1.81554e-18
1.86807e-18
1.92209e-18
1.97764e-18
2.03475e-18
2.09347e-18
2.15384e-18
2.21592e-18
2.27973e-18
2.34534e-18
2.4128e-18
2.48214e-18
2.55343e-18
2.62672e-18
2.70205e-18
2.7795e-18
2.85911e-18
2.94094e-18
3.02505e-18
3.11151e-18
3.20038e-18
3.29173e-18
3.38561e-18
3.48211e-18
3.58128e-18
3.68321e-18
3.78796e-18
3.89561e-18
4.00625e-18
4.11994e-18
4.23677e-18
4.35683e-18
4.4802e-18
4.60697e-18
4.73724e-18
4.87108e-18
5.0086e-18
5.1499e-18
5.29508e-18
5.44423e-18
5.59747e-18
5.7549e-18
5.91663e-18
6.08278e-18
6.25346e-18
6.42879e-18
6.6089e-18
6.7939e-18
6.98393e-18
7.17911e-18
7.37959e-18
7.58549e-18
7.79696e-18
8.01415e-18
8.2372e-18
8.46627e-18
8.7015e-18
8.94306e-18
9.19112e-18
9.44583e-18
9.70737e-18
9.97591e-18
1.02516e-17
1.05347e-17
1.08254e-17
1.11237e-17
1.14301e-17
1.17445e-17
1.20674e-17
1.23987e-17
1.27389e-17
1.3088e-17
1.34463e-17
1.38141e-17
1.41916e-17
1.4579e-17
1.49765e-17
1.53845e-17
1.58032e-17
1.62327e-17
1.66735e-17
1.71258e-17
1.75898e-17
1.80658e-17
1.85542e-17
1.90552e-17
1.95691e-17
2.00962e-17
2.06369e-17
2.11915e-17
2.17602e-17
2.23435e-17
2.29416e-17
2.3555e-17
2.41839e-17
2.48287e-17
2.54898e-17
2.61675e-17
2.68623e-17
2.75744e-17
2.83043e-17
2.90524e-17
2.98191e-17
3.06047e-17
3.14097e-17
3.22345e-17
3.30794e-17
3.3945e-17
3.48316e-17
3.57396e-17
3.66695e-17
3.76217e-17
3.85966e-17
3.95947e-17
4.06164e-17
4.16621e-17
4.27322e-17
4.38271e-17
4.49474e-17
4.60933e-17
4.72653e-17
4.84637e-17
4.96891e-17
5.09416e-17
5.22218e-17
5.35299e-17
5.48662e-17
5.62311e-17
5.76248e-17
5.90476e-17
6.04997e-17
6.19812e-17
6.34924e-17
6.50333e-17
6.6604e-17
6.82045e-17
6.98346e-17
7.14944e-17
7.31835e-17
7.49018e-17
7.66488e-17
7.84241e-17
8.02271e-17
8.20572e-17
8.39135e-17
8.57951e-17
8.77009e-17
8.96296e-17
9.15798e-17
9.35499e-17
9.55379e-17
9.75419e-17
9.95594e-17
1.01588e-16
1.03624e-16
1.05665e-16
1.07708e-16
1.09747e-16
1.11779e-16
1.13799e-16
1.15801e-16
1.1778e-16
1.19729e-16
1.2164e-16
1.23507e-16
1.2532e-16
1.2707e-16
1.28748e-16
1.30341e-16
1.31839e-16
1.33228e-16
1.34496e-16
1.35627e-16
1.36607e-16
1.37419e-16
1.3805e-16
1.38482e-16
1.38703e-16
)
;
    }
}


// ************************************************************************* //
