/*--------------------------------*- C++ -*----------------------------------*\
  =========                 |
  \\      /  F ield         | OpenFOAM: The Open Source CFD Toolbox
   \\    /   O peration     | Website:  https://openfoam.org
    \\  /    A nd           | Version:  dev
     \\/     M anipulation  |
\*---------------------------------------------------------------------------*/
FoamFile
{
    format      ascii;
    class       volScalarField;
    location    "0.96";
    object      N1;
}
// * * * * * * * * * * * * * * * * * * * * * * * * * * * * * * * * * * * * * //

dimensions      [0 0 0 0 0 0 0];

internalField   nonuniform List<scalar> 
8000
(
7.04892e-23
2.24568e-22
3.94134e-22
5.78482e-22
7.77739e-22
9.92604e-22
1.22376e-21
1.47191e-21
1.73787e-21
2.02251e-21
2.32676e-21
2.65158e-21
2.998e-21
3.36704e-21
3.75979e-21
4.17734e-21
4.62079e-21
5.09129e-21
5.58999e-21
6.11806e-21
6.67669e-21
7.2671e-21
7.89052e-21
8.54823e-21
9.2415e-21
9.97164e-21
1.074e-20
1.15479e-20
1.23969e-20
1.32882e-20
1.42235e-20
1.52041e-20
1.62316e-20
1.73076e-20
1.84337e-20
1.96116e-20
2.08429e-20
2.21293e-20
2.34726e-20
2.48747e-20
2.63374e-20
2.78626e-20
2.94522e-20
3.11083e-20
3.28329e-20
3.46282e-20
3.64962e-20
3.84392e-20
4.04595e-20
4.25595e-20
4.47414e-20
4.70079e-20
4.93614e-20
5.18045e-20
5.43398e-20
5.69702e-20
5.96984e-20
6.25274e-20
6.54601e-20
6.84995e-20
7.16489e-20
7.49113e-20
7.82903e-20
8.1789e-20
8.54112e-20
8.91603e-20
9.30401e-20
9.70544e-20
1.01207e-19
1.05502e-19
1.09944e-19
1.14537e-19
1.19285e-19
1.24192e-19
1.29264e-19
1.34506e-19
1.39921e-19
1.45516e-19
1.51295e-19
1.57263e-19
1.63427e-19
1.69792e-19
1.76364e-19
1.83149e-19
1.90152e-19
1.97381e-19
2.04842e-19
2.12541e-19
2.20486e-19
2.28683e-19
2.37141e-19
2.45866e-19
2.54867e-19
2.64151e-19
2.73726e-19
2.83602e-19
2.93786e-19
3.04289e-19
3.15118e-19
3.26284e-19
3.37796e-19
3.49665e-19
3.61901e-19
3.74514e-19
3.87516e-19
4.00917e-19
4.1473e-19
4.28966e-19
4.43638e-19
4.58758e-19
4.7434e-19
4.90397e-19
5.06942e-19
5.2399e-19
5.41556e-19
5.59654e-19
5.78301e-19
5.97511e-19
6.17302e-19
6.3769e-19
6.58693e-19
6.80329e-19
7.02615e-19
7.25572e-19
7.49217e-19
7.73572e-19
7.98657e-19
8.24494e-19
8.51103e-19
8.78508e-19
9.06731e-19
9.35796e-19
9.65729e-19
9.96553e-19
1.02829e-18
1.06098e-18
1.09464e-18
1.1293e-18
1.16498e-18
1.20173e-18
1.23957e-18
1.27852e-18
1.31863e-18
1.35993e-18
1.40244e-18
1.44622e-18
1.49128e-18
1.53768e-18
1.58544e-18
1.63462e-18
1.68524e-18
1.73735e-18
1.79099e-18
1.84621e-18
1.90306e-18
1.96157e-18
2.02181e-18
2.08381e-18
2.14762e-18
2.21331e-18
2.28092e-18
2.35052e-18
2.42214e-18
2.49587e-18
2.57174e-18
2.64984e-18
2.73021e-18
2.81293e-18
2.89806e-18
2.98568e-18
3.07585e-18
3.16864e-18
3.26413e-18
3.3624e-18
3.46353e-18
3.5676e-18
3.67468e-18
3.78488e-18
3.89828e-18
4.01496e-18
4.13503e-18
4.25857e-18
4.38569e-18
4.51648e-18
4.65106e-18
4.78954e-18
4.93201e-18
5.07859e-18
5.2294e-18
5.38457e-18
5.54421e-18
5.70844e-18
5.87741e-18
6.05123e-18
6.23006e-18
6.41403e-18
6.60328e-18
6.79797e-18
6.99825e-18
7.20427e-18
7.41619e-18
7.63419e-18
7.85842e-18
8.08908e-18
8.32633e-18
8.57036e-18
8.82136e-18
9.07952e-18
9.34505e-18
9.61815e-18
9.89903e-18
1.01879e-17
1.0485e-17
1.07906e-17
1.11048e-17
1.1428e-17
1.17603e-17
1.21021e-17
1.24535e-17
1.28149e-17
1.31866e-17
1.35687e-17
1.39617e-17
1.43657e-17
1.47812e-17
1.52084e-17
1.56476e-17
1.60993e-17
1.65636e-17
1.7041e-17
1.75318e-17
1.80364e-17
1.85552e-17
1.90885e-17
1.96368e-17
2.02004e-17
2.07798e-17
2.13755e-17
2.19877e-17
2.26171e-17
2.3264e-17
2.3929e-17
2.46125e-17
2.5315e-17
2.60371e-17
2.67792e-17
2.7542e-17
2.83259e-17
2.91315e-17
2.99595e-17
3.08104e-17
3.16848e-17
3.25833e-17
3.35067e-17
3.44556e-17
3.54306e-17
3.64324e-17
3.74618e-17
3.85195e-17
3.96062e-17
4.07228e-17
4.18699e-17
4.30485e-17
4.42593e-17
4.55032e-17
4.6781e-17
4.80937e-17
4.94422e-17
5.08274e-17
5.22502e-17
5.37117e-17
5.52129e-17
5.67547e-17
5.83384e-17
5.99648e-17
6.16352e-17
6.33507e-17
6.51124e-17
6.69216e-17
6.87795e-17
7.06873e-17
7.26463e-17
7.46578e-17
7.67232e-17
7.88438e-17
8.1021e-17
8.32563e-17
8.55512e-17
8.79072e-17
9.03258e-17
9.28085e-17
9.53571e-17
9.79731e-17
1.00658e-16
1.03414e-16
1.06243e-16
1.09146e-16
1.12126e-16
1.15183e-16
1.18321e-16
1.21541e-16
1.24845e-16
1.28235e-16
1.31713e-16
1.35282e-16
1.38943e-16
1.42699e-16
1.46552e-16
1.50504e-16
1.54559e-16
1.58717e-16
1.62982e-16
1.67357e-16
1.71843e-16
1.76443e-16
1.8116e-16
1.85997e-16
1.90957e-16
1.96041e-16
2.01253e-16
2.06597e-16
2.12074e-16
2.17688e-16
2.23441e-16
2.29338e-16
2.3538e-16
2.41571e-16
2.47914e-16
2.54413e-16
2.6107e-16
2.67889e-16
2.74872e-16
2.82024e-16
2.89348e-16
2.96846e-16
3.04522e-16
3.1238e-16
3.20422e-16
3.28653e-16
3.37074e-16
3.4569e-16
3.54503e-16
3.63517e-16
3.72734e-16
3.82158e-16
3.91792e-16
4.01637e-16
4.11698e-16
4.21976e-16
4.32473e-16
4.43192e-16
4.54135e-16
4.65303e-16
4.76698e-16
4.8832e-16
5.00171e-16
5.12252e-16
5.24561e-16
5.37098e-16
5.49864e-16
5.62855e-16
5.7607e-16
5.89506e-16
6.0316e-16
6.17027e-16
6.31102e-16
6.45379e-16
6.5985e-16
6.74508e-16
6.89341e-16
7.04341e-16
7.19492e-16
7.34782e-16
7.50195e-16
7.65711e-16
7.81312e-16
7.96974e-16
8.12673e-16
8.2838e-16
8.44065e-16
8.59693e-16
8.75228e-16
8.90627e-16
9.05845e-16
9.20832e-16
9.35534e-16
9.49889e-16
9.63833e-16
9.77295e-16
9.90195e-16
1.00245e-15
1.01397e-15
1.02466e-15
1.03441e-15
1.04311e-15
1.05064e-15
1.05689e-15
1.06173e-15
1.06506e-15
1.06676e-15
6.90521e-23
2.21366e-22
3.89502e-22
5.7322e-22
7.72508e-22
9.87833e-22
1.21979e-21
1.46907e-21
1.73647e-21
2.02285e-21
2.32916e-21
2.65639e-21
3.00556e-21
3.37775e-21
3.77405e-21
4.19557e-21
4.64346e-21
5.11889e-21
5.62303e-21
6.15709e-21
6.7223e-21
7.31991e-21
7.95119e-21
8.61744e-21
9.31998e-21
1.00602e-20
1.08394e-20
1.16591e-20
1.25206e-20
1.34255e-20
1.43753e-20
1.53715e-20
1.64157e-20
1.75096e-20
1.86547e-20
1.98528e-20
2.11057e-20
2.24151e-20
2.37828e-20
2.52107e-20
2.67008e-20
2.8255e-20
2.98754e-20
3.15639e-20
3.33228e-20
3.51541e-20
3.70602e-20
3.90434e-20
4.11059e-20
4.32502e-20
4.54788e-20
4.77943e-20
5.01992e-20
5.26962e-20
5.5288e-20
5.79776e-20
6.07678e-20
6.36616e-20
6.66621e-20
6.97723e-20
7.29957e-20
7.63354e-20
7.9795e-20
8.33779e-20
8.70877e-20
9.09282e-20
9.49032e-20
9.90167e-20
1.03273e-19
1.07675e-19
1.12229e-19
1.16937e-19
1.21806e-19
1.26839e-19
1.32042e-19
1.37418e-19
1.42974e-19
1.48714e-19
1.54645e-19
1.6077e-19
1.67097e-19
1.73631e-19
1.80377e-19
1.87343e-19
1.94534e-19
2.01957e-19
2.09619e-19
2.17527e-19
2.25687e-19
2.34108e-19
2.42797e-19
2.51761e-19
2.61008e-19
2.70548e-19
2.80388e-19
2.90537e-19
3.01004e-19
3.11798e-19
3.22929e-19
3.34406e-19
3.46241e-19
3.58442e-19
3.71021e-19
3.83989e-19
3.97357e-19
4.11137e-19
4.2534e-19
4.3998e-19
4.55068e-19
4.70617e-19
4.86642e-19
5.03156e-19
5.20173e-19
5.37708e-19
5.55776e-19
5.74393e-19
5.93573e-19
6.13335e-19
6.33694e-19
6.54669e-19
6.76276e-19
6.98535e-19
7.21464e-19
7.45083e-19
7.69411e-19
7.9447e-19
8.20281e-19
8.46865e-19
8.74245e-19
9.02445e-19
9.31487e-19
9.61396e-19
9.92198e-19
1.02392e-18
1.05658e-18
1.09022e-18
1.12486e-18
1.16053e-18
1.19726e-18
1.23507e-18
1.27401e-18
1.31411e-18
1.35539e-18
1.39789e-18
1.44165e-18
1.4867e-18
1.53309e-18
1.58084e-18
1.63e-18
1.68062e-18
1.73272e-18
1.78636e-18
1.84158e-18
1.89842e-18
1.95693e-18
2.01717e-18
2.07917e-18
2.14299e-18
2.20868e-18
2.2763e-18
2.3459e-18
2.41754e-18
2.49127e-18
2.56716e-18
2.64527e-18
2.72566e-18
2.8084e-18
2.89356e-18
2.9812e-18
3.07139e-18
3.16422e-18
3.25974e-18
3.35805e-18
3.45922e-18
3.56333e-18
3.67046e-18
3.78071e-18
3.89416e-18
4.0109e-18
4.13103e-18
4.25463e-18
4.38182e-18
4.5127e-18
4.64736e-18
4.78591e-18
4.92847e-18
5.07515e-18
5.22606e-18
5.38133e-18
5.54108e-18
5.70544e-18
5.87453e-18
6.04849e-18
6.22746e-18
6.41157e-18
6.60098e-18
6.79583e-18
6.99628e-18
7.20248e-18
7.41459e-18
7.63279e-18
7.85723e-18
8.08811e-18
8.32559e-18
8.56986e-18
8.82111e-18
9.07955e-18
9.34535e-18
9.61875e-18
9.89994e-18
1.01891e-17
1.04866e-17
1.07925e-17
1.11071e-17
1.14306e-17
1.17634e-17
1.21056e-17
1.24574e-17
1.28193e-17
1.31914e-17
1.35741e-17
1.39676e-17
1.43722e-17
1.47882e-17
1.5216e-17
1.56559e-17
1.61082e-17
1.65732e-17
1.70513e-17
1.75428e-17
1.80482e-17
1.85678e-17
1.9102e-17
1.96511e-17
2.02157e-17
2.0796e-17
2.13926e-17
2.2006e-17
2.26364e-17
2.32845e-17
2.39506e-17
2.46353e-17
2.53391e-17
2.60625e-17
2.6806e-17
2.75702e-17
2.83556e-17
2.91628e-17
2.99924e-17
3.0845e-17
3.17211e-17
3.26215e-17
3.35468e-17
3.44976e-17
3.54747e-17
3.64787e-17
3.75103e-17
3.85703e-17
3.96595e-17
4.07785e-17
4.19283e-17
4.31095e-17
4.43232e-17
4.557e-17
4.68509e-17
4.81668e-17
4.95185e-17
5.09071e-17
5.23335e-17
5.37987e-17
5.53038e-17
5.68496e-17
5.84374e-17
6.00681e-17
6.1743e-17
6.34632e-17
6.52298e-17
6.7044e-17
6.89071e-17
7.08203e-17
7.27849e-17
7.48023e-17
7.68738e-17
7.90007e-17
8.11845e-17
8.34267e-17
8.57287e-17
8.8092e-17
9.05182e-17
9.30089e-17
9.55657e-17
9.81903e-17
1.00884e-16
1.0365e-16
1.06488e-16
1.09401e-16
1.12391e-16
1.15459e-16
1.18608e-16
1.21839e-16
1.25155e-16
1.28558e-16
1.32049e-16
1.35631e-16
1.39307e-16
1.43077e-16
1.46946e-16
1.50914e-16
1.54985e-16
1.5916e-16
1.63443e-16
1.67836e-16
1.72341e-16
1.76961e-16
1.81699e-16
1.86557e-16
1.91539e-16
1.96647e-16
2.01884e-16
2.07252e-16
2.12756e-16
2.18397e-16
2.24179e-16
2.30105e-16
2.36178e-16
2.42401e-16
2.48778e-16
2.55312e-16
2.62005e-16
2.68862e-16
2.75886e-16
2.83079e-16
2.90446e-16
2.9799e-16
3.05713e-16
3.1362e-16
3.21715e-16
3.29999e-16
3.38477e-16
3.47152e-16
3.56027e-16
3.65106e-16
3.74392e-16
3.83887e-16
3.93596e-16
4.03521e-16
4.13664e-16
4.24029e-16
4.34617e-16
4.45433e-16
4.56477e-16
4.67751e-16
4.79258e-16
4.90999e-16
5.02975e-16
5.15187e-16
5.27635e-16
5.4032e-16
5.5324e-16
5.66396e-16
5.79785e-16
5.93405e-16
6.07253e-16
6.21327e-16
6.35621e-16
6.5013e-16
6.64848e-16
6.79768e-16
6.9488e-16
7.10176e-16
7.25643e-16
7.41269e-16
7.57039e-16
7.72936e-16
7.88943e-16
8.05039e-16
8.21199e-16
8.374e-16
8.53613e-16
8.69805e-16
8.85942e-16
9.01985e-16
9.17893e-16
9.33618e-16
9.49109e-16
9.6431e-16
9.79159e-16
9.93589e-16
1.00753e-15
1.02089e-15
1.0336e-15
1.04555e-15
1.05665e-15
1.06679e-15
1.07585e-15
1.08372e-15
1.09026e-15
1.09534e-15
1.09885e-15
1.10065e-15
6.77592e-23
2.17386e-22
3.82403e-22
5.63297e-22
7.60335e-22
9.73907e-22
1.20453e-21
1.45286e-21
1.71963e-21
2.0057e-21
2.31201e-21
2.63953e-21
2.98931e-21
3.36242e-21
3.75997e-21
4.1831e-21
4.63295e-21
5.11071e-21
5.6176e-21
6.15483e-21
6.72365e-21
7.32535e-21
7.96122e-21
8.6326e-21
9.34083e-21
1.00873e-20
1.08734e-20
1.17007e-20
1.25705e-20
1.34845e-20
1.44441e-20
1.54509e-20
1.65066e-20
1.76129e-20
1.87713e-20
1.99838e-20
2.12521e-20
2.25779e-20
2.39633e-20
2.541e-20
2.69202e-20
2.84957e-20
3.01388e-20
3.18514e-20
3.36359e-20
3.54944e-20
3.74292e-20
3.94427e-20
4.15373e-20
4.37155e-20
4.59797e-20
4.83328e-20
5.07772e-20
5.33159e-20
5.59515e-20
5.8687e-20
6.15255e-20
6.44698e-20
6.75233e-20
7.06891e-20
7.39706e-20
7.73712e-20
8.08943e-20
8.45436e-20
8.83229e-20
9.22359e-20
9.62865e-20
1.00479e-19
1.04817e-19
1.09305e-19
1.13948e-19
1.18749e-19
1.23715e-19
1.28848e-19
1.34155e-19
1.39641e-19
1.4531e-19
1.51167e-19
1.57219e-19
1.63472e-19
1.6993e-19
1.766e-19
1.83487e-19
1.906e-19
1.97943e-19
2.05523e-19
2.13349e-19
2.21425e-19
2.29761e-19
2.38363e-19
2.4724e-19
2.56398e-19
2.65847e-19
2.75595e-19
2.8565e-19
2.96022e-19
3.06719e-19
3.17751e-19
3.29129e-19
3.40861e-19
3.52958e-19
3.65432e-19
3.78292e-19
3.9155e-19
4.05218e-19
4.19307e-19
4.3383e-19
4.488e-19
4.64229e-19
4.8013e-19
4.96519e-19
5.13408e-19
5.30812e-19
5.48746e-19
5.67226e-19
5.86268e-19
6.05888e-19
6.26102e-19
6.46928e-19
6.68384e-19
6.90488e-19
7.13259e-19
7.36716e-19
7.6088e-19
7.8577e-19
8.11408e-19
8.37816e-19
8.65016e-19
8.93031e-19
9.21884e-19
9.516e-19
9.82204e-19
1.01372e-18
1.04618e-18
1.07961e-18
1.11403e-18
1.14947e-18
1.18597e-18
1.22356e-18
1.26226e-18
1.30211e-18
1.34314e-18
1.38539e-18
1.42888e-18
1.47367e-18
1.51978e-18
1.56725e-18
1.61613e-18
1.66644e-18
1.71824e-18
1.77157e-18
1.82647e-18
1.88299e-18
1.94117e-18
2.00106e-18
2.06271e-18
2.12617e-18
2.19149e-18
2.25873e-18
2.32794e-18
2.39918e-18
2.47251e-18
2.54799e-18
2.62567e-18
2.70562e-18
2.78791e-18
2.87261e-18
2.95978e-18
3.04949e-18
3.14181e-18
3.23683e-18
3.33462e-18
3.43525e-18
3.53881e-18
3.64539e-18
3.75506e-18
3.86792e-18
3.98405e-18
4.10356e-18
4.22653e-18
4.35307e-18
4.48327e-18
4.61725e-18
4.7551e-18
4.89694e-18
5.04289e-18
5.19305e-18
5.34754e-18
5.5065e-18
5.67004e-18
5.8383e-18
6.01141e-18
6.1895e-18
6.37272e-18
6.56121e-18
6.75512e-18
6.9546e-18
7.15982e-18
7.37092e-18
7.58808e-18
7.81146e-18
8.04125e-18
8.27762e-18
8.52075e-18
8.77084e-18
9.02807e-18
9.29266e-18
9.5648e-18
9.8447e-18
1.01326e-17
1.04287e-17
1.07332e-17
1.10464e-17
1.13685e-17
1.16998e-17
1.20404e-17
1.23908e-17
1.27511e-17
1.31216e-17
1.35026e-17
1.38944e-17
1.42972e-17
1.47115e-17
1.51375e-17
1.55755e-17
1.60258e-17
1.64889e-17
1.6965e-17
1.74546e-17
1.79579e-17
1.84753e-17
1.90073e-17
1.95542e-17
2.01165e-17
2.06946e-17
2.12888e-17
2.18997e-17
2.25277e-17
2.31732e-17
2.38368e-17
2.45189e-17
2.522e-17
2.59406e-17
2.66813e-17
2.74426e-17
2.82251e-17
2.90293e-17
2.98559e-17
3.07053e-17
3.15783e-17
3.24755e-17
3.33975e-17
3.4345e-17
3.53186e-17
3.63191e-17
3.73471e-17
3.84035e-17
3.94889e-17
4.06042e-17
4.17501e-17
4.29275e-17
4.41371e-17
4.53799e-17
4.66567e-17
4.79683e-17
4.93158e-17
5.07001e-17
5.2122e-17
5.35827e-17
5.50832e-17
5.66244e-17
5.82074e-17
5.98334e-17
6.15034e-17
6.32185e-17
6.49801e-17
6.67892e-17
6.86471e-17
7.05551e-17
7.25144e-17
7.45263e-17
7.65923e-17
7.87137e-17
8.08919e-17
8.31283e-17
8.54245e-17
8.7782e-17
9.02024e-17
9.26871e-17
9.52379e-17
9.78564e-17
1.00544e-16
1.03303e-16
1.06136e-16
1.09042e-16
1.12026e-16
1.15088e-16
1.1823e-16
1.21456e-16
1.24765e-16
1.28161e-16
1.31646e-16
1.35222e-16
1.38891e-16
1.42655e-16
1.46517e-16
1.50479e-16
1.54544e-16
1.58713e-16
1.6299e-16
1.67376e-16
1.71876e-16
1.7649e-16
1.81223e-16
1.86076e-16
1.91052e-16
1.96155e-16
2.01387e-16
2.06751e-16
2.1225e-16
2.17888e-16
2.23666e-16
2.29589e-16
2.3566e-16
2.41881e-16
2.48256e-16
2.54789e-16
2.61482e-16
2.68339e-16
2.75363e-16
2.82558e-16
2.89928e-16
2.97475e-16
3.05204e-16
3.13117e-16
3.21218e-16
3.29511e-16
3.37999e-16
3.46685e-16
3.55574e-16
3.64668e-16
3.7397e-16
3.83485e-16
3.93215e-16
4.03164e-16
4.13334e-16
4.23729e-16
4.34351e-16
4.45203e-16
4.56287e-16
4.67606e-16
4.79162e-16
4.90957e-16
5.02992e-16
5.15268e-16
5.27787e-16
5.40548e-16
5.53553e-16
5.668e-16
5.80289e-16
5.94018e-16
6.07985e-16
6.22187e-16
6.36622e-16
6.51283e-16
6.66167e-16
6.81266e-16
6.96574e-16
7.12081e-16
7.27778e-16
7.43652e-16
7.59693e-16
7.75883e-16
7.92207e-16
8.08646e-16
8.2518e-16
8.41784e-16
8.58433e-16
8.75098e-16
8.91747e-16
9.08345e-16
9.24853e-16
9.41227e-16
9.5742e-16
9.7338e-16
9.8905e-16
1.00437e-15
1.01926e-15
1.03366e-15
1.04749e-15
1.06064e-15
1.07304e-15
1.08457e-15
1.09511e-15
1.10457e-15
1.11279e-15
1.11966e-15
1.12502e-15
1.12874e-15
1.13067e-15
6.64734e-23
2.13215e-22
3.74801e-22
5.52071e-22
7.45628e-22
9.55994e-22
1.18373e-21
1.4295e-21
1.69404e-21
1.9782e-21
2.28288e-21
2.60908e-21
2.95781e-21
3.33016e-21
3.72724e-21
4.15017e-21
4.60012e-21
5.0783e-21
5.5859e-21
6.12418e-21
6.69439e-21
7.29784e-21
7.93585e-21
8.60976e-21
9.32095e-21
1.00708e-20
1.08609e-20
1.16925e-20
1.25673e-20
1.34867e-20
1.44524e-20
1.5466e-20
1.65291e-20
1.76435e-20
1.88108e-20
2.00329e-20
2.13117e-20
2.26488e-20
2.40464e-20
2.55063e-20
2.70306e-20
2.86213e-20
3.02806e-20
3.20107e-20
3.38137e-20
3.56919e-20
3.76477e-20
3.96836e-20
4.18019e-20
4.40052e-20
4.62962e-20
4.86774e-20
5.11516e-20
5.37217e-20
5.63904e-20
5.91609e-20
6.20361e-20
6.50191e-20
6.81132e-20
7.13217e-20
7.46479e-20
7.80954e-20
8.16678e-20
8.53686e-20
8.92018e-20
9.31712e-20
9.72807e-20
1.01535e-19
1.05937e-19
1.10492e-19
1.15205e-19
1.2008e-19
1.25121e-19
1.30334e-19
1.35723e-19
1.41295e-19
1.47053e-19
1.53004e-19
1.59152e-19
1.65505e-19
1.72067e-19
1.78846e-19
1.85846e-19
1.93075e-19
2.00539e-19
2.08246e-19
2.16201e-19
2.24413e-19
2.32889e-19
2.41636e-19
2.50663e-19
2.59977e-19
2.69587e-19
2.79502e-19
2.8973e-19
3.0028e-19
3.11163e-19
3.22387e-19
3.33962e-19
3.45899e-19
3.58208e-19
3.70901e-19
3.83987e-19
3.97479e-19
4.11389e-19
4.25728e-19
4.40509e-19
4.55745e-19
4.71449e-19
4.87635e-19
5.04317e-19
5.21509e-19
5.39226e-19
5.57483e-19
5.76297e-19
5.95682e-19
6.15657e-19
6.36238e-19
6.57442e-19
6.79288e-19
7.01794e-19
7.2498e-19
7.48865e-19
7.7347e-19
7.98816e-19
8.24923e-19
8.51815e-19
8.79514e-19
9.08043e-19
9.37427e-19
9.6769e-19
9.98858e-19
1.03096e-18
1.06401e-18
1.09806e-18
1.13312e-18
1.16922e-18
1.20639e-18
1.24467e-18
1.28409e-18
1.32468e-18
1.36647e-18
1.40951e-18
1.45381e-18
1.49943e-18
1.5464e-18
1.59475e-18
1.64454e-18
1.69579e-18
1.74856e-18
1.80289e-18
1.85881e-18
1.91638e-18
1.97565e-18
2.03666e-18
2.09946e-18
2.16411e-18
2.23066e-18
2.29916e-18
2.36967e-18
2.44224e-18
2.51695e-18
2.59384e-18
2.67298e-18
2.75443e-18
2.83827e-18
2.92455e-18
3.01336e-18
3.10476e-18
3.19882e-18
3.29563e-18
3.39525e-18
3.49778e-18
3.60329e-18
3.71188e-18
3.82361e-18
3.9386e-18
4.05692e-18
4.17868e-18
4.30398e-18
4.4329e-18
4.56556e-18
4.70207e-18
4.84253e-18
4.98705e-18
5.13575e-18
5.28874e-18
5.44616e-18
5.60812e-18
5.77476e-18
5.9462e-18
6.12258e-18
6.30404e-18
6.49073e-18
6.68279e-18
6.88038e-18
7.08364e-18
7.29274e-18
7.50784e-18
7.72912e-18
7.95674e-18
8.19088e-18
8.43173e-18
8.67948e-18
8.93431e-18
9.19643e-18
9.46604e-18
9.74334e-18
1.00286e-17
1.03219e-17
1.06236e-17
1.0934e-17
1.12531e-17
1.15813e-17
1.19189e-17
1.2266e-17
1.2623e-17
1.29902e-17
1.33677e-17
1.3756e-17
1.41552e-17
1.45658e-17
1.49879e-17
1.5422e-17
1.58684e-17
1.63273e-17
1.67992e-17
1.72844e-17
1.77833e-17
1.82962e-17
1.88235e-17
1.93657e-17
1.9923e-17
2.04961e-17
2.10852e-17
2.16907e-17
2.23133e-17
2.29533e-17
2.36111e-17
2.42874e-17
2.49825e-17
2.5697e-17
2.64315e-17
2.71863e-17
2.79622e-17
2.87597e-17
2.95793e-17
3.04217e-17
3.12874e-17
3.21771e-17
3.30915e-17
3.40311e-17
3.49968e-17
3.5989e-17
3.70087e-17
3.80565e-17
3.91332e-17
4.02394e-17
4.13761e-17
4.2544e-17
4.3744e-17
4.49769e-17
4.62435e-17
4.75448e-17
4.88817e-17
5.02551e-17
5.1666e-17
5.31153e-17
5.46041e-17
5.61334e-17
5.77043e-17
5.93178e-17
6.09751e-17
6.26773e-17
6.44255e-17
6.62211e-17
6.80651e-17
6.99588e-17
7.19036e-17
7.39007e-17
7.59515e-17
7.80574e-17
8.02197e-17
8.244e-17
8.47197e-17
8.70603e-17
8.94634e-17
9.19305e-17
9.44634e-17
9.70635e-17
9.97328e-17
1.02473e-16
1.05285e-16
1.08172e-16
1.11136e-16
1.14177e-16
1.17298e-16
1.20502e-16
1.2379e-16
1.27163e-16
1.30626e-16
1.34178e-16
1.37823e-16
1.41564e-16
1.45401e-16
1.49338e-16
1.53378e-16
1.57521e-16
1.61772e-16
1.66132e-16
1.70604e-16
1.75192e-16
1.79896e-16
1.84721e-16
1.89669e-16
1.94743e-16
1.99945e-16
2.0528e-16
2.10749e-16
2.16356e-16
2.22104e-16
2.27996e-16
2.34035e-16
2.40225e-16
2.46568e-16
2.53069e-16
2.5973e-16
2.66555e-16
2.73548e-16
2.80711e-16
2.88048e-16
2.95563e-16
3.0326e-16
3.11141e-16
3.19211e-16
3.27473e-16
3.35931e-16
3.44588e-16
3.53447e-16
3.62513e-16
3.71788e-16
3.81277e-16
3.90982e-16
4.00908e-16
4.11056e-16
4.21431e-16
4.32035e-16
4.42871e-16
4.53942e-16
4.65251e-16
4.768e-16
4.88591e-16
5.00627e-16
5.12908e-16
5.25436e-16
5.38212e-16
5.51236e-16
5.6451e-16
5.78032e-16
5.91802e-16
6.05818e-16
6.20078e-16
6.34579e-16
6.49319e-16
6.64293e-16
6.79494e-16
6.94918e-16
7.10556e-16
7.26401e-16
7.42441e-16
7.58666e-16
7.75063e-16
7.91616e-16
8.08309e-16
8.25124e-16
8.42039e-16
8.5903e-16
8.76073e-16
8.93137e-16
9.1019e-16
9.27198e-16
9.4412e-16
9.60913e-16
9.77529e-16
9.93916e-16
1.01002e-15
1.02577e-15
1.0411e-15
1.05593e-15
1.07019e-15
1.08377e-15
1.0966e-15
1.10854e-15
1.1195e-15
1.12934e-15
1.13794e-15
1.14514e-15
1.15079e-15
1.15474e-15
1.1568e-15
6.52591e-23
2.09258e-22
3.67599e-22
5.41208e-22
7.30914e-22
9.3743e-22
1.16145e-21
1.40371e-21
1.66499e-21
1.94615e-21
2.24812e-21
2.57188e-21
2.91844e-21
3.28888e-21
3.68429e-21
4.10581e-21
4.5546e-21
5.03186e-21
5.53879e-21
6.07665e-21
6.6467e-21
7.25027e-21
7.88867e-21
8.56328e-21
9.27549e-21
1.00267e-20
1.08185e-20
1.16522e-20
1.25295e-20
1.34518e-20
1.44209e-20
1.54383e-20
1.65058e-20
1.7625e-20
1.87978e-20
2.0026e-20
2.13114e-20
2.26559e-20
2.40615e-20
2.55302e-20
2.7064e-20
2.86651e-20
3.03356e-20
3.20777e-20
3.38937e-20
3.57858e-20
3.77566e-20
3.98084e-20
4.19438e-20
4.41653e-20
4.64756e-20
4.88773e-20
5.13734e-20
5.39666e-20
5.66598e-20
5.94562e-20
6.23587e-20
6.53706e-20
6.84952e-20
7.17357e-20
7.50957e-20
7.85787e-20
8.21883e-20
8.59283e-20
8.98025e-20
9.38148e-20
9.79695e-20
1.0227e-19
1.06722e-19
1.11329e-19
1.16096e-19
1.21027e-19
1.26127e-19
1.31401e-19
1.36854e-19
1.42492e-19
1.4832e-19
1.54343e-19
1.60567e-19
1.66997e-19
1.73641e-19
1.80504e-19
1.87592e-19
1.94913e-19
2.02472e-19
2.10276e-19
2.18334e-19
2.26652e-19
2.35238e-19
2.44099e-19
2.53244e-19
2.62681e-19
2.72418e-19
2.82464e-19
2.92829e-19
3.0352e-19
3.14549e-19
3.25924e-19
3.37656e-19
3.49755e-19
3.62231e-19
3.75097e-19
3.88362e-19
4.0204e-19
4.1614e-19
4.30677e-19
4.45663e-19
4.6111e-19
4.77033e-19
4.93444e-19
5.10359e-19
5.27792e-19
5.45757e-19
5.64271e-19
5.8335e-19
6.03009e-19
6.23266e-19
6.44138e-19
6.65642e-19
6.87799e-19
7.10625e-19
7.34141e-19
7.58367e-19
7.83324e-19
8.09032e-19
8.35513e-19
8.62791e-19
8.90887e-19
9.19826e-19
9.49633e-19
9.80332e-19
1.01195e-18
1.04451e-18
1.07805e-18
1.11258e-18
1.14815e-18
1.18477e-18
1.22249e-18
1.26133e-18
1.30132e-18
1.3425e-18
1.3849e-18
1.42856e-18
1.47351e-18
1.51979e-18
1.56745e-18
1.61651e-18
1.66702e-18
1.71902e-18
1.77256e-18
1.82768e-18
1.88443e-18
1.94284e-18
2.00298e-18
2.06488e-18
2.12861e-18
2.19421e-18
2.26173e-18
2.33124e-18
2.40279e-18
2.47643e-18
2.55224e-18
2.63026e-18
2.71057e-18
2.79322e-18
2.8783e-18
2.96586e-18
3.05597e-18
3.14872e-18
3.24417e-18
3.34241e-18
3.44351e-18
3.54755e-18
3.65463e-18
3.76482e-18
3.87821e-18
3.9949e-18
4.11498e-18
4.23854e-18
4.36569e-18
4.49653e-18
4.63116e-18
4.76969e-18
4.91224e-18
5.0589e-18
5.20981e-18
5.36508e-18
5.52484e-18
5.68921e-18
5.85833e-18
6.03232e-18
6.21133e-18
6.39549e-18
6.58496e-18
6.77988e-18
6.98041e-18
7.1867e-18
7.39892e-18
7.61723e-18
7.84181e-18
8.07282e-18
8.31046e-18
8.55491e-18
8.80635e-18
9.06499e-18
9.33103e-18
9.60467e-18
9.88612e-18
1.01756e-17
1.04733e-17
1.07796e-17
1.10945e-17
1.14185e-17
1.17516e-17
1.20942e-17
1.24466e-17
1.28089e-17
1.31816e-17
1.35648e-17
1.39589e-17
1.43641e-17
1.47808e-17
1.52093e-17
1.56499e-17
1.6103e-17
1.65688e-17
1.70478e-17
1.75403e-17
1.80466e-17
1.85673e-17
1.91025e-17
1.96528e-17
2.02186e-17
2.08002e-17
2.13982e-17
2.20129e-17
2.26449e-17
2.32945e-17
2.39623e-17
2.46487e-17
2.53543e-17
2.60796e-17
2.68251e-17
2.75914e-17
2.8379e-17
2.91885e-17
3.00205e-17
3.08756e-17
3.17544e-17
3.26576e-17
3.35858e-17
3.45397e-17
3.55199e-17
3.65272e-17
3.75624e-17
3.8626e-17
3.9719e-17
4.0842e-17
4.1996e-17
4.31816e-17
4.43998e-17
4.56514e-17
4.69373e-17
4.82583e-17
4.96155e-17
5.10098e-17
5.24421e-17
5.39135e-17
5.5425e-17
5.69776e-17
5.85723e-17
6.02104e-17
6.1893e-17
6.36211e-17
6.5396e-17
6.72189e-17
6.9091e-17
7.10137e-17
7.29881e-17
7.50158e-17
7.70979e-17
7.9236e-17
8.14314e-17
8.36856e-17
8.60002e-17
8.83767e-17
9.08166e-17
9.33215e-17
9.58932e-17
9.85332e-17
1.01243e-16
1.04025e-16
1.06881e-16
1.09813e-16
1.12821e-16
1.15909e-16
1.19079e-16
1.22332e-16
1.2567e-16
1.29096e-16
1.32611e-16
1.36219e-16
1.3992e-16
1.43718e-16
1.47615e-16
1.51613e-16
1.55715e-16
1.59922e-16
1.64239e-16
1.68667e-16
1.73208e-16
1.77866e-16
1.82644e-16
1.87544e-16
1.92569e-16
1.97721e-16
2.03005e-16
2.08422e-16
2.13977e-16
2.19671e-16
2.25509e-16
2.31493e-16
2.37626e-16
2.43913e-16
2.50356e-16
2.56958e-16
2.63724e-16
2.70656e-16
2.77758e-16
2.85034e-16
2.92487e-16
3.00121e-16
3.07939e-16
3.15945e-16
3.24143e-16
3.32535e-16
3.41127e-16
3.49922e-16
3.58922e-16
3.68133e-16
3.77556e-16
3.87197e-16
3.97058e-16
4.07142e-16
4.17454e-16
4.27996e-16
4.38772e-16
4.49783e-16
4.61035e-16
4.72528e-16
4.84265e-16
4.9625e-16
5.08483e-16
5.20966e-16
5.33701e-16
5.46689e-16
5.59931e-16
5.73426e-16
5.87175e-16
6.01178e-16
6.15431e-16
6.29934e-16
6.44685e-16
6.59678e-16
6.74911e-16
6.90378e-16
7.06073e-16
7.21988e-16
7.38116e-16
7.54445e-16
7.70965e-16
7.87662e-16
8.04522e-16
8.21528e-16
8.38662e-16
8.55902e-16
8.73225e-16
8.90605e-16
9.08012e-16
9.25415e-16
9.42778e-16
9.60062e-16
9.77222e-16
9.9421e-16
1.01097e-15
1.02746e-15
1.04359e-15
1.05932e-15
1.07454e-15
1.0892e-15
1.10318e-15
1.1164e-15
1.12874e-15
1.14008e-15
1.1503e-15
1.15925e-15
1.16678e-15
1.17272e-15
1.17688e-15
1.17907e-15
6.41843e-23
2.05742e-22
3.61202e-22
5.31473e-22
7.17499e-22
9.20148e-22
1.14026e-21
1.37869e-21
1.6363e-21
1.91399e-21
2.21271e-21
2.53346e-21
2.87726e-21
3.24515e-21
3.63825e-21
4.05767e-21
4.50457e-21
4.98013e-21
5.48556e-21
6.02212e-21
6.59107e-21
7.19374e-21
7.83145e-21
8.50559e-21
9.21755e-21
9.9688e-21
1.07608e-20
1.15951e-20
1.24732e-20
1.33967e-20
1.43672e-20
1.53864e-20
1.64561e-20
1.7578e-20
1.87538e-20
1.99854e-20
2.12748e-20
2.26237e-20
2.40343e-20
2.55085e-20
2.70484e-20
2.86562e-20
3.0334e-20
3.20841e-20
3.39088e-20
3.58105e-20
3.77914e-20
3.98543e-20
4.20015e-20
4.42357e-20
4.65596e-20
4.89759e-20
5.14875e-20
5.40972e-20
5.68081e-20
5.96231e-20
6.25455e-20
6.55784e-20
6.87252e-20
7.19892e-20
7.5374e-20
7.88831e-20
8.25202e-20
8.62892e-20
9.01938e-20
9.42382e-20
9.84264e-20
1.02763e-19
1.07251e-19
1.11897e-19
1.16704e-19
1.21677e-19
1.26822e-19
1.32142e-19
1.37644e-19
1.43332e-19
1.49212e-19
1.5529e-19
1.61571e-19
1.68062e-19
1.74767e-19
1.81695e-19
1.8885e-19
1.9624e-19
2.03872e-19
2.11752e-19
2.19888e-19
2.28287e-19
2.36957e-19
2.45906e-19
2.55142e-19
2.64673e-19
2.74508e-19
2.84656e-19
2.95125e-19
3.05925e-19
3.17067e-19
3.28558e-19
3.40411e-19
3.52635e-19
3.65241e-19
3.7824e-19
3.91644e-19
4.05465e-19
4.19714e-19
4.34404e-19
4.49548e-19
4.6516e-19
4.81251e-19
4.97838e-19
5.14933e-19
5.32553e-19
5.50711e-19
5.69424e-19
5.88708e-19
6.0858e-19
6.29056e-19
6.50155e-19
6.71893e-19
6.94291e-19
7.17366e-19
7.41139e-19
7.6563e-19
7.9086e-19
8.1685e-19
8.43623e-19
8.71201e-19
8.99607e-19
9.28866e-19
9.59002e-19
9.90041e-19
1.02201e-18
1.05493e-18
1.08884e-18
1.12376e-18
1.15972e-18
1.19676e-18
1.23489e-18
1.27416e-18
1.3146e-18
1.35624e-18
1.39911e-18
1.44326e-18
1.48872e-18
1.53552e-18
1.58371e-18
1.63333e-18
1.68441e-18
1.737e-18
1.79114e-18
1.84688e-18
1.90426e-18
1.96334e-18
2.02415e-18
2.08676e-18
2.1512e-18
2.21755e-18
2.28584e-18
2.35613e-18
2.42849e-18
2.50297e-18
2.57963e-18
2.65854e-18
2.73976e-18
2.82336e-18
2.9094e-18
2.99795e-18
3.08909e-18
3.1829e-18
3.27944e-18
3.3788e-18
3.48105e-18
3.58628e-18
3.69457e-18
3.80602e-18
3.92071e-18
4.03873e-18
4.16018e-18
4.28516e-18
4.41377e-18
4.5461e-18
4.68227e-18
4.82239e-18
4.96657e-18
5.11491e-18
5.26755e-18
5.42461e-18
5.5862e-18
5.75245e-18
5.92351e-18
6.0995e-18
6.28056e-18
6.46685e-18
6.65849e-18
6.85566e-18
7.05849e-18
7.26716e-18
7.48182e-18
7.70264e-18
7.92981e-18
8.16349e-18
8.40387e-18
8.65113e-18
8.90548e-18
9.1671e-18
9.43621e-18
9.713e-18
9.99771e-18
1.02905e-17
1.05917e-17
1.09015e-17
1.12201e-17
1.15478e-17
1.18848e-17
1.22313e-17
1.25878e-17
1.29543e-17
1.33313e-17
1.3719e-17
1.41176e-17
1.45275e-17
1.49491e-17
1.53825e-17
1.58283e-17
1.62866e-17
1.67578e-17
1.72424e-17
1.77406e-17
1.82529e-17
1.87795e-17
1.9321e-17
1.98777e-17
2.04501e-17
2.10385e-17
2.16434e-17
2.22653e-17
2.29046e-17
2.35618e-17
2.42374e-17
2.49319e-17
2.56457e-17
2.63795e-17
2.71337e-17
2.79089e-17
2.87058e-17
2.95247e-17
3.03665e-17
3.12316e-17
3.21207e-17
3.30345e-17
3.39735e-17
3.49386e-17
3.59303e-17
3.69495e-17
3.79967e-17
3.90729e-17
4.01787e-17
4.13149e-17
4.24824e-17
4.3682e-17
4.49145e-17
4.61808e-17
4.74818e-17
4.88185e-17
5.01917e-17
5.16024e-17
5.30516e-17
5.45403e-17
5.60696e-17
5.76405e-17
5.92542e-17
6.09116e-17
6.2614e-17
6.43626e-17
6.61585e-17
6.8003e-17
6.98973e-17
7.18427e-17
7.38406e-17
7.58923e-17
7.79991e-17
8.01625e-17
8.2384e-17
8.46651e-17
8.70072e-17
8.94119e-17
9.18808e-17
9.44156e-17
9.70178e-17
9.96894e-17
1.02432e-16
1.05247e-16
1.08137e-16
1.11103e-16
1.14148e-16
1.17273e-16
1.2048e-16
1.23772e-16
1.2715e-16
1.30617e-16
1.34175e-16
1.37826e-16
1.41572e-16
1.45415e-16
1.49359e-16
1.53405e-16
1.57556e-16
1.61814e-16
1.66183e-16
1.70664e-16
1.7526e-16
1.79975e-16
1.8481e-16
1.89769e-16
1.94855e-16
2.0007e-16
2.05418e-16
2.10901e-16
2.16523e-16
2.22286e-16
2.28195e-16
2.34252e-16
2.4046e-16
2.46824e-16
2.53345e-16
2.60029e-16
2.66877e-16
2.73895e-16
2.81084e-16
2.88449e-16
2.95994e-16
3.03722e-16
3.11637e-16
3.19742e-16
3.28041e-16
3.36538e-16
3.45237e-16
3.54141e-16
3.63254e-16
3.72579e-16
3.82121e-16
3.91882e-16
4.01867e-16
4.12079e-16
4.22521e-16
4.33197e-16
4.44109e-16
4.55262e-16
4.66657e-16
4.78297e-16
4.90186e-16
5.02325e-16
5.14717e-16
5.27362e-16
5.40264e-16
5.53423e-16
5.66839e-16
5.80513e-16
5.94446e-16
6.08635e-16
6.23081e-16
6.37781e-16
6.52732e-16
6.67932e-16
6.83375e-16
6.99058e-16
7.14974e-16
7.31115e-16
7.47473e-16
7.64038e-16
7.808e-16
7.97744e-16
8.14857e-16
8.32121e-16
8.49519e-16
8.67028e-16
8.84627e-16
9.02288e-16
9.19982e-16
9.37678e-16
9.55341e-16
9.72929e-16
9.904e-16
1.00771e-15
1.02479e-15
1.0416e-15
1.05808e-15
1.07414e-15
1.08971e-15
1.10471e-15
1.11904e-15
1.13261e-15
1.1453e-15
1.15699e-15
1.16755e-15
1.17682e-15
1.18465e-15
1.19085e-15
1.19522e-15
1.19753e-15
6.32838e-23
2.02795e-22
3.55847e-22
5.23297e-22
7.0613e-22
9.05325e-22
1.12185e-21
1.35665e-21
1.6107e-21
1.88497e-21
2.18044e-21
2.49811e-21
2.83904e-21
3.20426e-21
3.59487e-21
4.01198e-21
4.45673e-21
4.93031e-21
5.43392e-21
5.96879e-21
6.53622e-21
7.1375e-21
7.77398e-21
8.44704e-21
9.15809e-21
9.90859e-21
1.07e-20
1.15339e-20
1.24119e-20
1.33354e-20
1.43063e-20
1.53261e-20
1.63965e-20
1.75195e-20
1.86967e-20
1.99301e-20
2.12215e-20
2.25729e-20
2.39863e-20
2.54637e-20
2.70073e-20
2.86192e-20
3.03016e-20
3.20568e-20
3.3887e-20
3.57948e-20
3.77825e-20
3.98526e-20
4.20077e-20
4.42505e-20
4.65836e-20
4.90099e-20
5.15321e-20
5.41533e-20
5.68764e-20
5.97045e-20
6.26407e-20
6.56884e-20
6.88508e-20
7.21315e-20
7.55339e-20
7.90616e-20
8.27184e-20
8.65081e-20
9.04347e-20