/*--------------------------------*- C++ -*----------------------------------*\
  =========                 |
  \\      /  F ield         | OpenFOAM: The Open Source CFD Toolbox
   \\    /   O peration     | Website:  https://openfoam.org
    \\  /    A nd           | Version:  dev
     \\/     M anipulation  |
\*---------------------------------------------------------------------------*/
FoamFile
{
    format      ascii;
    class       volScalarField;
    location    "0.44";
    object      beta;
}
// * * * * * * * * * * * * * * * * * * * * * * * * * * * * * * * * * * * * * //

dimensions      [0 0 0 0 0 0 0];

internalField   uniform 0;

boundaryField
{
    frontAndBack
    {
        type            empty;
    }
    inlet
    {
        type            calculated;
        value           uniform 0;
    }
    outlet
    {
        type            calculated;
        value           uniform 0;
    }
    substrate
    {
        type            calculated;
        value           nonuniform List<scalar> 
400
(
0.00276608
0.00290564
0.00300803
0.00310162
0.00319055
0.00327519
0.00335654
0.00343547
0.00351263
0.00358845
0.00366328
0.00373739
0.00381096
0.00388416
0.00395709
0.00402986
0.00410251
0.00417508
0.00424762
0.00432013
0.00439261
0.00446507
0.0045375
0.00460988
0.0046822
0.00475444
0.00482658
0.00489859
0.00497045
0.00504214
0.00511363
0.00518489
0.00525591
0.00532665
0.0053971
0.00546722
0.005537
0.0056064
0.00567542
0.00574402
0.00581218
0.00587989
0.00594712
0.00601386
0.00608009
0.00614578
0.00621093
0.00627551
0.00633951
0.00640292
0.00646572
0.0065279
0.00658944
0.00665034
0.00671059
0.00677017
0.00682908
0.0068873
0.00694484
0.00700167
0.00705781
0.00711323
0.00716794
0.00722193
0.0072752
0.00732775
0.00737957
0.00743065
0.00748101
0.00753064
0.00757954
0.00762771
0.00767514
0.00772185
0.00776784
0.00781309
0.00785763
0.00790145
0.00794456
0.00798695
0.00802863
0.00806962
0.00810991
0.0081495
0.00818841
0.00822664
0.00826419
0.00830107
0.00833729
0.00837285
0.00840777
0.00844204
0.00847567
0.00850868
0.00854107
0.00857284
0.00860401
0.00863458
0.00866456
0.00869396
0.00872278
0.00875104
0.00877873
0.00880588
0.00883249
0.00885856
0.0088841
0.00890912
0.00893364
0.00895765
0.00898117
0.0090042
0.00902676
0.00904884
0.00907047
0.00909163
0.00911235
0.00913264
0.00915249
0.00917192
0.00919093
0.00920954
0.00922774
0.00924555
0.00926297
0.00928002
0.00929669
0.009313
0.00932895
0.00934455
0.00935981
0.00937473
0.00938932
0.00940358
0.00941753
0.00943116
0.0094445
0.00945753
0.00947027
0.00948272
0.00949489
0.00950678
0.00951841
0.00952977
0.00954087
0.00955173
0.00956233
0.00957269
0.00958281
0.0095927
0.00960237
0.00961181
0.00962103
0.00963004
0.00963885
0.00964745
0.00965585
0.00966405
0.00967206
0.00967989
0.00968754
0.00969501
0.0097023
0.00970942
0.00971638
0.00972317
0.0097298
0.00973628
0.00974261
0.00974878
0.00975481
0.0097607
0.00976645
0.00977207
0.00977755
0.0097829
0.00978813
0.00979323
0.00979821
0.00980307
0.00980782
0.00981245
0.00981698
0.00982139
0.00982571
0.00982991
0.00983402
0.00983803
0.00984195
0.00984577
0.0098495
0.00985314
0.00985669
0.00986016
0.00986355
0.00986685
0.00987008
0.00987322
0.0098763
0.00987929
0.00988222
0.00988508
0.00988786
0.00989058
0.00989324
0.00989583
0.00989836
0.00990083
0.00990324
0.00990559
0.00990788
0.00991012
0.0099123
0.00991443
0.00991651
0.00991854
0.00992052
0.00992246
0.00992434
0.00992618
0.00992798
0.00992973
0.00993144
0.00993311
0.00993474
0.00993633
0.00993788
0.00993939
0.00994087
0.00994231
0.00994372
0.00994509
0.00994643
0.00994773
0.00994901
0.00995025
0.00995146
0.00995265
0.0099538
0.00995493
0.00995603
0.0099571
0.00995815
0.00995917
0.00996017
0.00996114
0.00996209
0.00996301
0.00996392
0.0099648
0.00996566
0.00996649
0.00996731
0.00996811
0.00996889
0.00996965
0.00997039
0.00997112
0.00997182
0.00997251
0.00997318
0.00997384
0.00997448
0.0099751
0.00997571
0.00997631
0.00997689
0.00997745
0.009978
0.00997854
0.00997907
0.00997958
0.00998008
0.00998057
0.00998104
0.00998151
0.00998196
0.0099824
0.00998283
0.00998325
0.00998366
0.00998406
0.00998445
0.00998483
0.00998521
0.00998557
0.00998592
0.00998627
0.00998661
0.00998693
0.00998725
0.00998757
0.00998787
0.00998817
0.00998846
0.00998874
0.00998902
0.00998929
0.00998955
0.00998981
0.00999006
0.0099903
0.00999054
0.00999078
0.009991
0.00999122
0.00999144
0.00999165
0.00999186
0.00999206
0.00999225
0.00999244
0.00999263
0.00999281
0.00999299
0.00999316
0.00999333
0.00999349
0.00999365
0.00999381
0.00999396
0.00999411
0.00999426
0.0099944
0.00999454
0.00999467
0.00999481
0.00999493
0.00999506
0.00999518
0.0099953
0.00999542
0.00999553
0.00999564
0.00999575
0.00999586
0.00999596
0.00999606
0.00999616
0.00999625
0.00999634
0.00999644
0.00999652
0.00999661
0.00999669
0.00999678
0.00999686
0.00999694
0.00999701
0.00999709
0.00999716
0.00999723
0.0099973
0.00999737
0.00999743
0.0099975
0.00999756
0.00999762
0.00999768
0.00999774
0.00999779
0.00999785
0.0099979
0.00999796
0.00999801
0.00999806
0.00999811
0.00999815
0.0099982
0.00999824
0.00999829
0.00999833
0.00999837
0.00999841
0.00999845
0.00999849
0.00999853
0.00999856
0.0099986
0.00999863
0.00999866
0.00999869
0.00999873
0.00999875
0.00999878
0.00999881
0.00999884
0.00999886
0.00999888
0.00999891
0.00999893
0.00999894
0.00999896
0.00999898
0.00999899
0.009999
0.00999901
0.00999902
0.00999903
0.00999903
)
;
    }
    Wall
    {
        type            calculated;
        value           nonuniform List<scalar> 
400
(
0.00276608
0.00290564
0.00300802
0.00310161
0.00319055
0.0032752
0.00335655
0.00343549
0.00351265
0.00358847
0.00366331
0.00373741
0.00381099
0.00388418
0.00395712
0.00402988
0.00410253
0.0041751
0.00424764
0.00432014
0.00439263
0.00446509
0.00453751
0.00460989
0.00468221
0.00475445
0.00482659
0.00489859
0.00497045
0.00504214
0.00511363
0.00518489
0.00525591
0.00532665
0.00539709
0.00546721
0.00553699
0.00560639
0.00567541
0.00574401
0.00581217
0.00587988
0.00594711
0.00601385
0.00608007
0.00614577
0.00621091
0.00627549
0.00633949
0.0064029
0.0064657
0.00652788
0.00658942
0.00665033
0.00671057
0.00677015
0.00682906
0.00688728
0.00694482
0.00700165
0.00705779
0.00711321
0.00716792
0.00722191
0.00727518
0.00732773
0.00737954
0.00743063
0.00748099
0.00753062
0.00757952
0.00762769
0.00767512
0.00772183
0.00776782
0.00781307
0.00785761
0.00790143
0.00794454
0.00798693
0.00802862
0.0080696
0.00810989
0.00814948
0.00818839
0.00822662
0.00826417
0.00830105
0.00833727
0.00837283
0.00840775
0.00844202
0.00847566
0.00850867
0.00854105
0.00857283
0.008604
0.00863457
0.00866455
0.00869394
0.00872277
0.00875102
0.00877872
0.00880587
0.00883247
0.00885854
0.00888409
0.00890911
0.00893363
0.00895764
0.00898116
0.00900419
0.00902675
0.00904883
0.00907045
0.00909162
0.00911234
0.00913263
0.00915248
0.00917191
0.00919092
0.00920953
0.00922773
0.00924554
0.00926296
0.00928001
0.00929668
0.00931299
0.00932895
0.00934455
0.0093598
0.00937472
0.00938931
0.00940358
0.00941752
0.00943116
0.00944449
0.00945752
0.00947026
0.00948271
0.00949488
0.00950678
0.0095184
0.00952976
0.00954087
0.00955172
0.00956232
0.00957268
0.00958281
0.0095927
0.00960236
0.0096118
0.00962103
0.00963004
0.00963884
0.00964744
0.00965584
0.00966405
0.00967206
0.00967989
0.00968753
0.009695
0.00970229
0.00970942
0.00971637
0.00972317
0.0097298
0.00973628
0.0097426
0.00974878
0.00975481
0.0097607
0.00976645
0.00977206
0.00977755
0.0097829
0.00978812
0.00979323
0.00979821
0.00980307
0.00980782
0.00981245
0.00981697
0.00982139
0.0098257
0.00982991
0.00983402
0.00983803
0.00984194
0.00984577
0.0098495
0.00985314
0.00985669
0.00986016
0.00986354
0.00986685
0.00987007
0.00987322
0.00987629
0.00987929
0.00988222
0.00988507
0.00988786
0.00989058
0.00989324
0.00989583
0.00989836
0.00990083
0.00990323
0.00990558
0.00990788
0.00991012
0.0099123
0.00991443
0.00991651
0.00991854
0.00992052
0.00992246
0.00992434
0.00992618
0.00992798
0.00992973
0.00993144
0.00993311
0.00993474
0.00993633
0.00993788
0.00993939
0.00994087
0.00994231
0.00994372
0.00994509
0.00994643
0.00994773
0.00994901
0.00995025
0.00995146
0.00995265
0.0099538
0.00995493
0.00995603
0.0099571
0.00995815
0.00995917
0.00996016
0.00996114
0.00996209
0.00996301
0.00996391
0.0099648
0.00996566
0.00996649
0.00996731
0.00996811
0.00996889
0.00996965
0.00997039
0.00997112
0.00997182
0.00997251
0.00997318
0.00997384
0.00997448
0.0099751
0.00997571
0.0099763
0.00997688
0.00997745
0.009978
0.00997854
0.00997907
0.00997958
0.00998008
0.00998057
0.00998104
0.00998151
0.00998196
0.0099824
0.00998283
0.00998325
0.00998366
0.00998406
0.00998445
0.00998483
0.00998521
0.00998557
0.00998592
0.00998627
0.00998661
0.00998693
0.00998725
0.00998757
0.00998787
0.00998817
0.00998846
0.00998874
0.00998902
0.00998929
0.00998955
0.00998981
0.00999006
0.0099903
0.00999054
0.00999078
0.009991
0.00999122
0.00999144
0.00999165
0.00999186
0.00999206
0.00999225
0.00999244
0.00999263
0.00999281
0.00999299
0.00999316
0.00999333
0.00999349
0.00999365
0.00999381
0.00999396
0.00999411
0.00999426
0.0099944
0.00999454
0.00999467
0.00999481
0.00999493
0.00999506
0.00999518
0.0099953
0.00999542
0.00999553
0.00999564
0.00999575
0.00999586
0.00999596
0.00999606
0.00999616
0.00999625
0.00999634
0.00999644
0.00999652
0.00999661
0.00999669
0.00999678
0.00999686
0.00999694
0.00999701
0.00999709
0.00999716
0.00999723
0.0099973
0.00999737
0.00999743
0.0099975
0.00999756
0.00999762
0.00999768
0.00999774
0.00999779
0.00999785
0.0099979
0.00999796
0.00999801
0.00999806
0.00999811
0.00999815
0.0099982
0.00999824
0.00999829
0.00999833
0.00999837
0.00999841
0.00999845
0.00999849
0.00999853
0.00999856
0.0099986
0.00999863
0.00999866
0.00999869
0.00999873
0.00999875
0.00999878
0.00999881
0.00999884
0.00999886
0.00999888
0.00999891
0.00999893
0.00999894
0.00999896
0.00999898
0.00999899
0.009999
0.00999901
0.00999902
0.00999903
0.00999903
)
;
    }
}


// ************************************************************************* //
