/*--------------------------------*- C++ -*----------------------------------*\
  =========                 |
  \\      /  F ield         | OpenFOAM: The Open Source CFD Toolbox
   \\    /   O peration     | Website:  https://openfoam.org
    \\  /    A nd           | Version:  dev
     \\/     M anipulation  |
\*---------------------------------------------------------------------------*/
FoamFile
{
    format      ascii;
    class       volScalarField;
    location    "0.44";
    object      cov;
}
// * * * * * * * * * * * * * * * * * * * * * * * * * * * * * * * * * * * * * //

dimensions      [0 0 0 0 0 0 0];

internalField   uniform 0;

boundaryField
{
    frontAndBack
    {
        type            empty;
    }
    inlet
    {
        type            calculated;
        value           uniform 0;
    }
    outlet
    {
        type            calculated;
        value           uniform 0;
    }
    substrate
    {
        type            calculated;
        value           nonuniform List<scalar> 
400
(
0.723392
0.709436
0.699197
0.689838
0.680945
0.672481
0.664346
0.656453
0.648737
0.641155
0.633672
0.626261
0.618904
0.611584
0.604291
0.597014
0.589749
0.582492
0.575238
0.567987
0.560739
0.553493
0.54625
0.539012
0.53178
0.524556
0.517342
0.510141
0.502955
0.495786
0.488637
0.481511
0.474409
0.467335
0.46029
0.453278
0.4463
0.43936
0.432458
0.425598
0.418782
0.412011
0.405288
0.398614
0.391991
0.385422
0.378907
0.372449
0.366049
0.359708
0.353428
0.34721
0.341056
0.334966
0.328941
0.322983
0.317092
0.31127
0.305516
0.299833
0.294219
0.288677
0.283206
0.277807
0.27248
0.267225
0.262043
0.256935
0.251899
0.246936
0.242046
0.237229
0.232486
0.227815
0.223216
0.218691
0.214237
0.209855
0.205544
0.201305
0.197137
0.193038
0.189009
0.18505
0.181159
0.177336
0.173581
0.169893
0.166271
0.162715
0.159223
0.155796
0.152433
0.149132
0.145893
0.142716
0.139599
0.136542
0.133544
0.130604
0.127722
0.124896
0.122127
0.119412
0.116751
0.114144
0.11159
0.109088
0.106636
0.104235
0.101883
0.0995796
0.0973242
0.0951157
0.0929535
0.0908367
0.0887645
0.0867363
0.0847511
0.0828082
0.0809069
0.0790465
0.0772261
0.0754451
0.0737026
0.0719981
0.0703307
0.0686998
0.0671047
0.0655446
0.064019
0.062527
0.0610682
0.0596417
0.0582471
0.0568835
0.0555505
0.0542473
0.0529735
0.0517283
0.0505113
0.0493217
0.0481591
0.0470229
0.0459126
0.0448275
0.0437672
0.0427311
0.0417188
0.0407297
0.0397633
0.0388191
0.0378967
0.0369956
0.0361153
0.0352554
0.0344154
0.0335949
0.0327935
0.0320107
0.0312462
0.0304995
0.0297702
0.0290579
0.0283624
0.0276831
0.0270198
0.026372
0.0257394
0.0251218
0.0245187
0.0239297
0.0233547
0.0227933
0.0222451
0.0217099
0.0211873
0.0206772
0.0201791
0.0196928
0.0192181
0.0187547
0.0183023
0.0178606
0.0174295
0.0170086
0.0165978
0.0161968
0.0158053
0.0154232
0.0150502
0.0146861
0.0143308
0.0139839
0.0136454
0.013315
0.0129925
0.0126777
0.0123705
0.0120706
0.011778
0.0114924
0.0112136
0.0109416
0.0106761
0.010417
0.0101641
0.0099173
0.00967647
0.00944143
0.00921207
0.00898824
0.0087698
0.00855664
0.00834863
0.00814564
0.00794755
0.00775425
0.00756562
0.00738155
0.00720193
0.00702666
0.00685563
0.00668874
0.00652588
0.00636697
0.00621191
0.00606061
0.00591297
0.00576891
0.00562835
0.00549119
0.00535735
0.00522676
0.00509934
0.00497502
0.00485371
0.00473534
0.00461985
0.00450716
0.0043972
0.00428992
0.00418525
0.00408311
0.00398346
0.00388623
0.00379136
0.0036988
0.00360849
0.00352038
0.0034344
0.00335052
0.00326868
0.00318883
0.00311092
0.00303491
0.00296075
0.00288839
0.00281779
0.00274891
0.00268171
0.00261614
0.00255217
0.00248976
0.00242887
0.00236946
0.0023115
0.00225494
0.00219977
0.00214594
0.00209342
0.00204218
0.00199219
0.00194342
0.00189584
0.00184941
0.00180412
0.00175993
0.00171682
0.00167476
0.00163372
0.00159368
0.00155462
0.00151652
0.00147934
0.00144307
0.00140768
0.00137315
0.00133947
0.00130661
0.00127455
0.00124327
0.00121276
0.00118298
0.00115394
0.0011256
0.00109796
0.00107099
0.00104467
0.001019
0.000993958
0.000969524
0.000945687
0.000922431
0.000899743
0.000877608
0.000856013
0.000834946
0.000814393
0.000794341
0.000774779
0.000755694
0.000737075
0.000718911
0.00070119
0.000683902
0.000667036
0.000650582
0.000634529
0.000618869
0.000603591
0.000588686
0.000574145
0.000559959
0.00054612
0.000532619
0.000519448
0.000506599
0.000494064
0.000481835
0.000469905
0.000458267
0.000446913
0.000435837
0.000425031
0.00041449
0.000404207
0.000394175
0.000384389
0.000374842
0.000365529
0.000356444
0.000347582
0.000338936
0.000330503
0.000322276
0.000314251
0.000306423
0.000298786
0.000291338
0.000284072
0.000276985
0.000270073
0.00026333
0.000256754
0.00025034
0.000244084
0.000237984
0.000232034
0.000226232
0.000220574
0.000215058
0.000209679
0.000204435
0.000199324
0.000194341
0.000189486
0.000184754
0.000180144
0.000175654
0.000171281
0.000167023
0.00016288
0.000158849
0.000154928
0.000151118
0.000147416
0.000143823
0.000140338
0.000136961
0.000133692
0.000130533
0.000127484
0.000124547
0.000121724
0.000119019
0.000116434
0.000113974
0.000111645
0.000109451
0.000107401
0.000105502
0.000103764
0.000102196
0.000100812
9.96225e-05
9.86431e-05
9.78878e-05
9.73716e-05
9.7108e-05
)
;
    }
    Wall
    {
        type            calculated;
        value           nonuniform List<scalar> 
400
(
0.723392
0.709436
0.699198
0.689839
0.680945
0.67248
0.664345
0.656451
0.648735
0.641153
0.633669
0.626259
0.618901
0.611582
0.604288
0.597012
0.589747
0.58249
0.575236
0.567986
0.560737
0.553491
0.546249
0.539011
0.531779
0.524555
0.517341
0.510141
0.502955
0.495786
0.488637
0.481511
0.474409
0.467335
0.460291
0.453279
0.446301
0.439361
0.432459
0.425599
0.418783
0.412012
0.405289
0.398615
0.391993
0.385423
0.378909
0.372451
0.366051
0.35971
0.35343
0.347212
0.341058
0.334967
0.328943
0.322985
0.317094
0.311272
0.305518
0.299835
0.294221
0.288679
0.283208
0.277809
0.272482
0.267227
0.262046
0.256937
0.251901
0.246938
0.242048
0.237231
0.232488
0.227817
0.223218
0.218693
0.214239
0.209857
0.205546
0.201307
0.197138
0.19304
0.189011
0.185052
0.181161
0.177338
0.173583
0.169895
0.166273
0.162717
0.159225
0.155798
0.152434
0.149133
0.145895
0.142717
0.1396
0.136543
0.133545
0.130606
0.127723
0.124898
0.122128
0.119413
0.116753
0.114146
0.111591
0.109089
0.106637
0.104236
0.101884
0.0995808
0.0973253
0.0951168
0.0929546
0.0908377
0.0887656
0.0867373
0.0847521
0.0828092
0.0809079
0.0790474
0.077227
0.075446
0.0737035
0.0719989
0.0703316
0.0687006
0.0671055
0.0655454
0.0640197
0.0625278
0.0610689
0.0596424
0.0582478
0.0568842
0.0555512
0.054248
0.0529741
0.051729
0.0505119
0.0493223
0.0481597
0.0470235
0.0459132
0.0448281
0.0437678
0.0427317
0.0417193
0.0407302
0.0397638
0.0388196
0.0378972
0.0369961
0.0361158
0.0352559
0.0344159
0.0335954
0.032794
0.0320112
0.0312466
0.0304999
0.0297706
0.0290583
0.0283628
0.0276835
0.0270201
0.0263724
0.0257398
0.0251221
0.024519
0.0239301
0.023355
0.0227936
0.0222454
0.0217102
0.0211876
0.0206775
0.0201794
0.0196931
0.0192184
0.018755
0.0183025
0.0178609
0.0174297
0.0170089
0.016598
0.016197
0.0158055
0.0154234
0.0150504
0.0146864
0.014331
0.0139841
0.0136456
0.0133152
0.0129927
0.0126779
0.0123706
0.0120708
0.0117782
0.0114925
0.0112138
0.0109417
0.0106762
0.0104171
0.0101642
0.00991745
0.00967661
0.00944158
0.00921221
0.00898838
0.00876994
0.00855678
0.00834876
0.00814576
0.00794767
0.00775437
0.00756574
0.00738167
0.00720205
0.00702677
0.00685574
0.00668884
0.00652599
0.00636708
0.00621202
0.00606071
0.00591307
0.00576901
0.00562844
0.00549128
0.00535744
0.00522685
0.00509943
0.0049751
0.00485379
0.00473542
0.00461992
0.00450723
0.00439728
0.00429
0.00418532
0.00408318
0.00398353
0.0038863
0.00379143
0.00369887
0.00360856
0.00352044
0.00343446
0.00335058
0.00326874
0.00318889
0.00311098
0.00303496
0.0029608
0.00288844
0.00281784
0.00274896
0.00268176
0.00261619
0.00255222
0.00248981
0.00242891
0.0023695
0.00231154
0.00225499
0.00219981
0.00214598
0.00209346
0.00204222
0.00199223
0.00194346
0.00189587
0.00184945
0.00180415
0.00175996
0.00171685
0.00167479
0.00163375
0.00159371
0.00155465
0.00151654
0.00147937
0.00144309
0.0014077
0.00137318
0.0013395
0.00130663
0.00127457
0.00124329
0.00121278
0.00118301
0.00115396
0.00112562
0.00109798
0.00107101
0.00104469
0.00101902
0.000993977
0.000969543
0.000945705
0.000922448
0.00089976
0.000877625
0.00085603
0.000834962
0.000814408
0.000794356
0.000774793
0.000755708
0.000737089
0.000718925
0.000701203
0.000683915
0.000667048
0.000650594
0.000634541
0.00061888
0.000603602
0.000588697
0.000574156
0.00055997
0.000546131
0.00053263
0.000519458
0.000506609
0.000494073
0.000481844
0.000469914
0.000458275
0.000446921
0.000435845
0.000425039
0.000414498
0.000404215
0.000394183
0.000384396
0.000374849
0.000365536
0.000356451
0.000347588
0.000338943
0.000330509
0.000322282
0.000314257
0.000306428
0.000298792
0.000291343
0.000284077
0.00027699
0.000270077
0.000263335
0.000256758
0.000250344
0.000244089
0.000237988
0.000232038
0.000226236
0.000220578
0.000215061
0.000209683
0.000204439
0.000199327
0.000194345
0.000189489
0.000184757
0.000180147
0.000175657
0.000171284
0.000167026
0.000162883
0.000158851
0.000154931
0.00015112
0.000147419
0.000143825
0.00014034
0.000136963
0.000133694
0.000130535
0.000127486
0.000124549
0.000121726
0.000119021
0.000116436
0.000113976
0.000111647
0.000109453
0.000107403
0.000105504
0.000103765
0.000102198
0.000100813
9.96243e-05
9.86449e-05
9.78896e-05
9.73733e-05
9.71096e-05
)
;
    }
}


// ************************************************************************* //
