/*--------------------------------*- C++ -*----------------------------------*\
  =========                 |
  \\      /  F ield         | OpenFOAM: The Open Source CFD Toolbox
   \\    /   O peration     | Website:  https://openfoam.org
    \\  /    A nd           | Version:  dev
     \\/     M anipulation  |
\*---------------------------------------------------------------------------*/
FoamFile
{
    format      ascii;
    class       volScalarField;
    location    "0.44";
    object      Exp1;
}
// * * * * * * * * * * * * * * * * * * * * * * * * * * * * * * * * * * * * * //

dimensions      [0 0 0 0 0 0 0];

internalField   uniform 0;

boundaryField
{
    frontAndBack
    {
        type            empty;
    }
    inlet
    {
        type            calculated;
        value           uniform 0;
    }
    outlet
    {
        type            calculated;
        value           uniform 0;
    }
    substrate
    {
        type            calculated;
        value           nonuniform List<scalar> 
400
(
1.29859e-11
4.13599e-11
7.2574e-11
1.06495e-10
1.43144e-10
1.82647e-10
2.25123e-10
2.70702e-10
3.19527e-10
3.71751e-10
4.2754e-10
4.87067e-10
5.50511e-10
6.18054e-10
6.89887e-10
7.66199e-10
8.47187e-10
9.33046e-10
1.02398e-09
1.12018e-09
1.22187e-09
1.32924e-09
1.44252e-09
1.5619e-09
1.68762e-09
1.81989e-09
1.95894e-09
2.10499e-09
2.25827e-09
2.41903e-09
2.5875e-09
2.76393e-09
2.94857e-09
3.14167e-09
3.34349e-09
3.55429e-09
3.77434e-09
4.00392e-09
4.24329e-09
4.49276e-09
4.75259e-09
5.0231e-09
5.30457e-09
5.59732e-09
5.90165e-09
6.21787e-09
6.54633e-09
6.88733e-09
7.24122e-09
7.60834e-09
7.98903e-09
8.38366e-09
8.79257e-09
9.21615e-09
9.65476e-09
1.01088e-08
1.05786e-08
1.10647e-08
1.15673e-08
1.2087e-08
1.26241e-08
1.31791e-08
1.37524e-08
1.43444e-08
1.49556e-08
1.55865e-08
1.62375e-08
1.69092e-08
1.76019e-08
1.83162e-08
1.90527e-08
1.98117e-08
2.05939e-08
2.13997e-08
2.22298e-08
2.30846e-08
2.39648e-08
2.48708e-08
2.58034e-08
2.6763e-08
2.77503e-08
2.87658e-08
2.98103e-08
3.08843e-08
3.19886e-08
3.31236e-08
3.42902e-08
3.54889e-08
3.67205e-08
3.79857e-08
3.92851e-08
4.06196e-08
4.19897e-08
4.33963e-08
4.48401e-08
4.63219e-08
4.78424e-08
4.94024e-08
5.10027e-08
5.26442e-08
5.43276e-08
5.60537e-08
5.78234e-08
5.96376e-08
6.1497e-08
6.34026e-08
6.53552e-08
6.73558e-08
6.94051e-08
7.15042e-08
7.36539e-08
7.58551e-08
7.81088e-08
8.0416e-08
8.27775e-08
8.51944e-08
8.76675e-08
9.0198e-08
9.27867e-08
9.54346e-08
9.81428e-08
1.00912e-07
1.03744e-07
1.06639e-07
1.09598e-07
1.12623e-07
1.15714e-07
1.18872e-07
1.22099e-07
1.25395e-07
1.28762e-07
1.322e-07
1.35711e-07
1.39296e-07
1.42955e-07
1.4669e-07
1.50502e-07
1.54392e-07
1.58361e-07
1.6241e-07
1.6654e-07
1.70753e-07
1.75048e-07
1.79428e-07
1.83893e-07
1.88444e-07
1.93082e-07
1.97809e-07
2.02625e-07
2.07532e-07
2.1253e-07
2.1762e-07
2.22804e-07
2.28082e-07
2.33455e-07
2.38924e-07
2.44491e-07
2.50155e-07
2.55919e-07
2.61782e-07
2.67746e-07
2.73811e-07
2.79979e-07
2.86249e-07
2.92624e-07
2.99103e-07
3.05688e-07
3.12379e-07
3.19177e-07
3.26082e-07
3.33095e-07
3.40217e-07
3.47448e-07
3.54789e-07
3.6224e-07
3.69802e-07
3.77475e-07
3.8526e-07
3.93158e-07
4.01167e-07
4.09289e-07
4.17525e-07
4.25873e-07
4.34335e-07
4.4291e-07
4.516e-07
4.60402e-07
4.69319e-07
4.78349e-07
4.87493e-07
4.96751e-07
5.06122e-07
5.15606e-07
5.25203e-07
5.34913e-07
5.44735e-07
5.54668e-07
5.64713e-07
5.74869e-07
5.85135e-07
5.95511e-07
6.05995e-07
6.16588e-07
6.27288e-07
6.38095e-07
6.49007e-07
6.60024e-07
6.71144e-07
6.82367e-07
6.93691e-07
7.05115e-07
7.16638e-07
7.28259e-07
7.39975e-07
7.51786e-07
7.6369e-07
7.75686e-07
7.87771e-07
7.99945e-07
8.12204e-07
8.24548e-07
8.36974e-07
8.49481e-07
8.62067e-07
8.74728e-07
8.87464e-07
9.00272e-07
9.13149e-07
9.26094e-07
9.39103e-07
9.52175e-07
9.65307e-07
9.78496e-07
9.91739e-07
1.00503e-06
1.01838e-06
1.03177e-06
1.0452e-06
1.05867e-06
1.07218e-06
1.08573e-06
1.0993e-06
1.11291e-06
1.12654e-06
1.14019e-06
1.15385e-06
1.16753e-06
1.18123e-06
1.19493e-06
1.20863e-06
1.22233e-06
1.23603e-06
1.24973e-06
1.26341e-06
1.27708e-06
1.29073e-06
1.30436e-06
1.31797e-06
1.33154e-06
1.34508e-06
1.35858e-06
1.37204e-06
1.38546e-06
1.39882e-06
1.41214e-06
1.42539e-06
1.43859e-06
1.45171e-06
1.46477e-06
1.47776e-06
1.49066e-06
1.50349e-06
1.51622e-06
1.52887e-06
1.54142e-06
1.55388e-06
1.56623e-06
1.57847e-06
1.59061e-06
1.60263e-06
1.61453e-06
1.6263e-06
1.63795e-06
1.64947e-06
1.66085e-06
1.6721e-06
1.6832e-06
1.69415e-06
1.70496e-06
1.71561e-06
1.7261e-06
1.73643e-06
1.74659e-06
1.75658e-06
1.7664e-06
1.77605e-06
1.78551e-06
1.79479e-06
1.80388e-06
1.81279e-06
1.8215e-06
1.83001e-06
1.83832e-06
1.84643e-06
1.85434e-06
1.86203e-06
1.86951e-06
1.87678e-06
1.88384e-06
1.89067e-06
1.89728e-06
1.90366e-06
1.90982e-06
1.91575e-06
1.92144e-06
1.9269e-06
1.93213e-06
1.93712e-06
1.94187e-06
1.94637e-06
1.95064e-06
1.95465e-06
1.95843e-06
1.96195e-06
1.96523e-06
1.96826e-06
1.97103e-06
1.97356e-06
1.97583e-06
1.97785e-06
1.97961e-06
1.98112e-06
1.98237e-06
1.98337e-06
1.98412e-06
1.98461e-06
1.98484e-06
1.98482e-06
1.98455e-06
1.98402e-06
1.98324e-06
1.9822e-06
1.98091e-06
1.97937e-06
1.97758e-06
1.97555e-06
1.97326e-06
1.97073e-06
1.96796e-06
1.96494e-06
1.96169e-06
1.9582e-06
1.95447e-06
1.95051e-06
1.94633e-06
1.94191e-06
1.93728e-06
1.93242e-06
1.92736e-06
1.92208e-06
1.91659e-06
1.9109e-06
1.90502e-06
1.89895e-06
1.89269e-06
1.88625e-06
1.87964e-06
1.87287e-06
1.86594e-06
1.85887e-06
1.85165e-06
1.84431e-06
1.83685e-06
1.82929e-06
1.82163e-06
1.81389e-06
1.80608e-06
1.79823e-06
1.79034e-06
1.78244e-06
1.77454e-06
1.76667e-06
1.75886e-06
1.75112e-06
1.74348e-06
1.73598e-06
1.72864e-06
1.7215e-06
1.71461e-06
1.708e-06
1.70171e-06
1.6958e-06
1.69031e-06
1.6853e-06
1.68083e-06
1.67696e-06
1.67374e-06
1.67125e-06
1.66954e-06
1.66866e-06
)
;
    }
    Wall
    {
        type            calculated;
        value           nonuniform List<scalar> 
400
(
1.29857e-11
4.13592e-11
7.25727e-11
1.06493e-10
1.43142e-10
1.82643e-10
2.25118e-10
2.70696e-10
3.19518e-10
3.7174e-10
4.27528e-10
4.87052e-10
5.50493e-10
6.18034e-10
6.89863e-10
7.66173e-10
8.47156e-10
9.33012e-10
1.02394e-09
1.12014e-09
1.22182e-09
1.32919e-09
1.44246e-09
1.56185e-09
1.68756e-09
1.81982e-09
1.95886e-09
2.10491e-09
2.25819e-09
2.41894e-09
2.58741e-09
2.76384e-09
2.94847e-09
3.14156e-09
3.34338e-09
3.55417e-09
3.77422e-09
4.00379e-09
4.24316e-09
4.49262e-09
4.75245e-09
5.02294e-09
5.30441e-09
5.59715e-09
5.90147e-09
6.21769e-09
6.54613e-09
6.88713e-09
7.24101e-09
7.60812e-09
7.9888e-09
8.38342e-09
8.79232e-09
9.21589e-09
9.65449e-09
1.01085e-08
1.05783e-08
1.10644e-08
1.1567e-08
1.20867e-08
1.26238e-08
1.31787e-08
1.3752e-08
1.4344e-08
1.49552e-08
1.55861e-08
1.62371e-08
1.69087e-08
1.76015e-08
1.83158e-08
1.90522e-08
1.98112e-08
2.05934e-08
2.13992e-08
2.22293e-08
2.30841e-08
2.39642e-08
2.48702e-08
2.58028e-08
2.67623e-08
2.77496e-08
2.87652e-08
2.98096e-08
3.08836e-08
3.19878e-08
3.31229e-08
3.42894e-08
3.54881e-08
3.67197e-08
3.79848e-08
3.92842e-08
4.06186e-08
4.19887e-08
4.33953e-08
4.48391e-08
4.63208e-08
4.78413e-08
4.94013e-08
5.10016e-08
5.2643e-08
5.43263e-08
5.60524e-08
5.78221e-08
5.96362e-08
6.14956e-08
6.34012e-08
6.53538e-08
6.73543e-08
6.94036e-08
7.15026e-08
7.36522e-08
7.58534e-08
7.81071e-08
8.04142e-08
8.27757e-08
8.51925e-08
8.76656e-08
9.0196e-08
9.27847e-08
9.54326e-08
9.81407e-08
1.0091e-07
1.03742e-07
1.06637e-07
1.09596e-07
1.1262e-07
1.15711e-07
1.18869e-07
1.22096e-07
1.25392e-07
1.28759e-07
1.32197e-07
1.35708e-07
1.39293e-07
1.42952e-07
1.46687e-07
1.50499e-07
1.54389e-07
1.58358e-07
1.62407e-07
1.66537e-07
1.70749e-07
1.75045e-07
1.79424e-07
1.83889e-07
1.8844e-07
1.93079e-07
1.97805e-07
2.02621e-07
2.07528e-07
2.12526e-07
2.17616e-07
2.228e-07
2.28077e-07
2.33451e-07
2.3892e-07
2.44486e-07
2.50151e-07
2.55914e-07
2.61777e-07
2.67741e-07
2.73806e-07
2.79973e-07
2.86244e-07
2.92619e-07
2.99098e-07
3.05682e-07
3.12373e-07
3.19171e-07
3.26076e-07
3.33089e-07
3.4021e-07
3.47441e-07
3.54782e-07
3.62233e-07
3.69795e-07
3.77468e-07
3.85253e-07
3.9315e-07
4.0116e-07
4.09282e-07
4.17517e-07
4.25865e-07
4.34327e-07
4.42902e-07
4.51591e-07
4.60394e-07
4.69311e-07
4.78341e-07
4.87485e-07
4.96742e-07
5.06113e-07
5.15597e-07
5.25194e-07
5.34903e-07
5.44725e-07
5.54659e-07
5.64703e-07
5.74859e-07
5.85125e-07
5.955e-07
6.05985e-07
6.16578e-07
6.27277e-07
6.38084e-07
6.48996e-07
6.60013e-07
6.71133e-07
6.82356e-07
6.93679e-07
7.05104e-07
7.16626e-07
7.28247e-07
7.39963e-07
7.51774e-07
7.63678e-07
7.75673e-07
7.87758e-07
7.99931e-07
8.12191e-07
8.24535e-07
8.36961e-07
8.49468e-07
8.62053e-07
8.74714e-07
8.8745e-07
9.00258e-07
9.13135e-07
9.26079e-07
9.39089e-07
9.5216e-07
9.65292e-07
9.7848e-07
9.91723e-07
1.00502e-06
1.01836e-06
1.03175e-06
1.04518e-06
1.05866e-06
1.07217e-06
1.08571e-06
1.09929e-06
1.11289e-06
1.12652e-06
1.14017e-06
1.15383e-06
1.16752e-06
1.18121e-06
1.19491e-06
1.20861e-06
1.22232e-06
1.23602e-06
1.24971e-06
1.26339e-06
1.27706e-06
1.29071e-06
1.30434e-06
1.31795e-06
1.33152e-06
1.34506e-06
1.35856e-06
1.37202e-06
1.38544e-06
1.39881e-06
1.41212e-06
1.42537e-06
1.43857e-06
1.45169e-06
1.46475e-06
1.47774e-06
1.49064e-06
1.50347e-06
1.5162e-06
1.52885e-06
1.5414e-06
1.55386e-06
1.56621e-06
1.57845e-06
1.59059e-06
1.60261e-06
1.6145e-06
1.62628e-06
1.63793e-06
1.64945e-06
1.66083e-06
1.67208e-06
1.68318e-06
1.69413e-06
1.70494e-06
1.71558e-06
1.72608e-06
1.7364e-06
1.74657e-06
1.75656e-06
1.76638e-06
1.77602e-06
1.78549e-06
1.79477e-06
1.80386e-06
1.81277e-06
1.82147e-06
1.82999e-06
1.8383e-06
1.84641e-06
1.85431e-06
1.86201e-06
1.86949e-06
1.87676e-06
1.88381e-06
1.89065e-06
1.89726e-06
1.90364e-06
1.9098e-06
1.91572e-06
1.92142e-06
1.92688e-06
1.93211e-06
1.9371e-06
1.94185e-06
1.94635e-06
1.95062e-06
1.95464e-06
1.95841e-06
1.96193e-06
1.96521e-06
1.96824e-06
1.97101e-06
1.97354e-06
1.97581e-06
1.97783e-06
1.97959e-06
1.9811e-06
1.98236e-06
1.98336e-06
1.9841e-06
1.98459e-06
1.98483e-06
1.98481e-06
1.98453e-06
1.984e-06
1.98322e-06
1.98219e-06
1.9809e-06
1.97936e-06
1.97757e-06
1.97553e-06
1.97325e-06
1.97072e-06
1.96794e-06
1.96493e-06
1.96167e-06
1.95818e-06
1.95446e-06
1.9505e-06
1.94631e-06
1.9419e-06
1.93726e-06
1.93241e-06
1.92734e-06
1.92206e-06
1.91658e-06
1.91089e-06
1.90501e-06
1.89893e-06
1.89267e-06
1.88624e-06
1.87963e-06
1.87286e-06
1.86593e-06
1.85886e-06
1.85164e-06
1.8443e-06
1.83684e-06
1.82928e-06
1.82162e-06
1.81388e-06
1.80607e-06
1.79822e-06
1.79033e-06
1.78243e-06
1.77453e-06
1.76667e-06
1.75885e-06
1.75111e-06
1.74347e-06
1.73597e-06
1.72863e-06
1.7215e-06
1.7146e-06
1.70799e-06
1.70171e-06
1.69579e-06
1.69031e-06
1.6853e-06
1.68083e-06
1.67695e-06
1.67374e-06
1.67125e-06
1.66954e-06
1.66867e-06
)
;
    }
}


// ************************************************************************* //
