/*--------------------------------*- C++ -*----------------------------------*\
  =========                 |
  \\      /  F ield         | OpenFOAM: The Open Source CFD Toolbox
   \\    /   O peration     | Website:  https://openfoam.org
    \\  /    A nd           | Version:  dev
     \\/     M anipulation  |
\*---------------------------------------------------------------------------*/
FoamFile
{
    format      ascii;
    class       volScalarField;
    location    "0.44";
    object      N1;
}
// * * * * * * * * * * * * * * * * * * * * * * * * * * * * * * * * * * * * * //

dimensions      [0 0 0 0 0 0 0];

internalField   nonuniform List<scalar> 
8000
(
9.85951e-11
3.14103e-10
5.51255e-10
8.0905e-10
1.08765e-09
1.388e-09
1.71105e-09
2.05777e-09
2.42924e-09
2.82667e-09
3.2513e-09
3.70448e-09
4.18756e-09
4.70196e-09
5.24912e-09
5.83052e-09
6.44764e-09
7.10201e-09
7.79516e-09
8.52864e-09
9.30405e-09
1.0123e-08
1.0987e-08
1.18979e-08
1.28572e-08
1.38667e-08
1.49281e-08
1.60431e-08
1.72136e-08
1.84413e-08
1.97282e-08
2.1076e-08
2.24868e-08
2.39624e-08
2.5505e-08
2.71164e-08
2.87988e-08
3.05543e-08
3.2385e-08
3.42931e-08
3.62808e-08
3.83505e-08
4.05043e-08
4.27447e-08
4.50741e-08
4.74948e-08
5.00095e-08
5.26206e-08
5.53307e-08
5.81424e-08
6.10585e-08
6.40816e-08
6.72146e-08
7.04602e-08
7.38215e-08
7.73012e-08
8.09025e-08
8.46283e-08
8.84819e-08
9.24664e-08
9.65849e-08
1.00841e-07
1.05238e-07
1.09779e-07
1.14467e-07
1.19307e-07
1.24302e-07
1.29455e-07
1.34771e-07
1.40252e-07
1.45904e-07
1.5173e-07
1.57733e-07
1.63919e-07
1.70291e-07
1.76854e-07
1.83611e-07
1.90568e-07
1.97729e-07
2.05097e-07
2.12679e-07
2.20479e-07
2.285e-07
2.3675e-07
2.45231e-07
2.5395e-07
2.62911e-07
2.7212e-07
2.81582e-07
2.91302e-07
3.01285e-07
3.11538e-07
3.22066e-07
3.32874e-07
3.43969e-07
3.55356e-07
3.6704e-07
3.79029e-07
3.91328e-07
4.03944e-07
4.16882e-07
4.30149e-07
4.43751e-07
4.57695e-07
4.71988e-07
4.86636e-07
5.01645e-07
5.17024e-07
5.32778e-07
5.48914e-07
5.6544e-07
5.82363e-07
5.99689e-07
6.17427e-07
6.35583e-07
6.54165e-07
6.73179e-07
6.92635e-07
7.12539e-07
7.32898e-07
7.53721e-07
7.75016e-07
7.96789e-07
8.19049e-07
8.41804e-07
8.65061e-07
8.88829e-07
9.13116e-07
9.37928e-07
9.63276e-07
9.89166e-07
1.01561e-06
1.04261e-06
1.07017e-06
1.09831e-06
1.12704e-06
1.15635e-06
1.18627e-06
1.21679e-06
1.24793e-06
1.27969e-06
1.31209e-06
1.34512e-06
1.3788e-06
1.41314e-06
1.44814e-06
1.48382e-06
1.52017e-06
1.55721e-06
1.59495e-06
1.63339e-06
1.67254e-06
1.7124e-06
1.753e-06
1.79432e-06
1.83639e-06
1.8792e-06
1.92276e-06
1.96709e-06
2.01219e-06
2.05805e-06
2.1047e-06
2.15214e-06
2.20037e-06
2.2494e-06
2.29923e-06
2.34988e-06
2.40134e-06
2.45362e-06
2.50673e-06
2.56067e-06
2.61545e-06
2.67106e-06
2.72753e-06
2.78484e-06
2.843e-06
2.90202e-06
2.9619e-06
3.02264e-06
3.08424e-06
3.14671e-06
3.21005e-06
3.27427e-06
3.33935e-06
3.40531e-06
3.47214e-06
3.53985e-06
3.60843e-06
3.67789e-06
3.74822e-06
3.81942e-06
3.8915e-06
3.96444e-06
4.03826e-06
4.11294e-06
4.18849e-06
4.26489e-06
4.34215e-06
4.42026e-06
4.49923e-06
4.57903e-06
4.65967e-06
4.74115e-06
4.82345e-06
4.90657e-06
4.9905e-06
5.07523e-06
5.16076e-06
5.24708e-06
5.33418e-06
5.42205e-06
5.51068e-06
5.60006e-06
5.69018e-06
5.78102e-06
5.87258e-06
5.96484e-06
6.0578e-06
6.15143e-06
6.24572e-06
6.34067e-06
6.43624e-06
6.53244e-06
6.62924e-06
6.72663e-06
6.82459e-06
6.9231e-06
7.02214e-06
7.1217e-06
7.22177e-06
7.32231e-06
7.42331e-06
7.52475e-06
7.62661e-06
7.72886e-06
7.8315e-06
7.93449e-06
8.03781e-06
8.14144e-06
8.24535e-06
8.34953e-06
8.45395e-06
8.55857e-06
8.66339e-06
8.76837e-06
8.87349e-06
8.97872e-06
9.08403e-06
9.18941e-06
9.29481e-06
9.40021e-06
9.50559e-06
9.61092e-06
9.71617e-06
9.8213e-06
9.9263e-06
1.00311e-05
1.01358e-05
1.02402e-05
1.03443e-05
1.04482e-05
1.05517e-05
1.06549e-05
1.07577e-05
1.08601e-05
1.0962e-05
1.10635e-05
1.11645e-05
1.12649e-05
1.13648e-05
1.1464e-05
1.15627e-05
1.16606e-05
1.17579e-05
1.18545e-05
1.19502e-05
1.20452e-05
1.21394e-05
1.22328e-05
1.23252e-05
1.24167e-05
1.25073e-05
1.25969e-05
1.26855e-05
1.2773e-05
1.28595e-05
1.29449e-05
1.30292e-05
1.31123e-05
1.31942e-05
1.32749e-05
1.33543e-05
1.34325e-05
1.35093e-05
1.35849e-05
1.3659e-05
1.37318e-05
1.38032e-05
1.38731e-05
1.39416e-05
1.40086e-05
1.40741e-05
1.4138e-05
1.42004e-05
1.42612e-05
1.43204e-05
1.43779e-05
1.44338e-05
1.44881e-05
1.45406e-05
1.45915e-05
1.46406e-05
1.46879e-05
1.47335e-05
1.47773e-05
1.48193e-05
1.48595e-05
1.48979e-05
1.49344e-05
1.49691e-05
1.50019e-05
1.50328e-05
1.50618e-05
1.50889e-05
1.51141e-05
1.51374e-05
1.51588e-05
1.51782e-05
1.51957e-05
1.52112e-05
1.52248e-05
1.52364e-05
1.5246e-05
1.52537e-05
1.52594e-05
1.52632e-05
1.5265e-05
1.52649e-05
1.52628e-05
1.52587e-05
1.52527e-05
1.52447e-05
1.52348e-05
1.5223e-05
1.52092e-05
1.51935e-05
1.5176e-05
1.51565e-05
1.51352e-05
1.5112e-05
1.5087e-05
1.50601e-05
1.50315e-05
1.5001e-05
1.49688e-05
1.49349e-05
1.48992e-05
1.48619e-05
1.48229e-05
1.47823e-05
1.47401e-05
1.46964e-05
1.46512e-05
1.46044e-05
1.45563e-05
1.45068e-05
1.4456e-05
1.44039e-05
1.43506e-05
1.42962e-05
1.42407e-05
1.41843e-05
1.41269e-05
1.40687e-05
1.40098e-05
1.39503e-05
1.38903e-05
1.38299e-05
1.37692e-05
1.37084e-05
1.36477e-05
1.35872e-05
1.35271e-05
1.34675e-05
1.34088e-05
1.33511e-05
1.32947e-05
1.32398e-05
1.31868e-05
1.31359e-05
1.30876e-05
1.30421e-05
1.29999e-05
1.29614e-05
1.2927e-05
1.28972e-05
1.28725e-05
1.28533e-05
1.28402e-05
1.28334e-05
9.65856e-11
3.09627e-10
5.4478e-10
8.01697e-10
1.08034e-09
1.38135e-09
1.70553e-09
2.05382e-09
2.42731e-09
2.82718e-09
3.25471e-09
3.71126e-09
4.19821e-09
4.71701e-09
5.26913e-09
5.8561e-09
6.47943e-09
7.14068e-09
7.84144e-09
8.5833e-09
9.36789e-09
1.01969e-08
1.10719e-08
1.19946e-08
1.29669e-08
1.39903e-08
1.50668e-08
1.61981e-08
1.73861e-08
1.86327e-08
1.99397e-08
2.13091e-08
2.2743e-08
2.42433e-08
2.58121e-08
2.74515e-08
2.91637e-08
3.09508e-08
3.2815e-08
3.47586e-08
3.67839e-08
3.88933e-08
4.10892e-08
4.33739e-08
4.575e-08
4.822e-08
5.07864e-08
5.3452e-08
5.62194e-08
5.90912e-08
6.20703e-08
6.51596e-08
6.83618e-08
7.168e-08
7.51171e-08
7.86761e-08
8.23603e-08
8.61727e-08
9.01165e-08
9.41952e-08
9.84119e-08
1.0277e-07
1.07273e-07
1.11925e-07
1.16729e-07
1.21689e-07
1.26808e-07
1.32091e-07
1.3754e-07
1.43162e-07
1.48958e-07
1.54933e-07
1.61092e-07
1.67439e-07
1.73978e-07
1.80713e-07
1.87649e-07
1.9479e-07
2.02142e-07
2.09708e-07
2.17494e-07
2.25505e-07
2.33744e-07
2.42218e-07
2.50932e-07
2.5989e-07
2.69098e-07
2.78562e-07
2.88286e-07
2.98277e-07
3.0854e-07
3.1908e-07
3.29904e-07
3.41017e-07
3.52425e-07
3.64134e-07
3.76151e-07
3.88482e-07
4.01132e-07
4.14108e-07
4.27418e-07
4.41066e-07
4.55061e-07
4.69408e-07
4.84115e-07
4.99187e-07
5.14633e-07
5.3046e-07
5.46673e-07
5.63281e-07
5.80291e-07
5.9771e-07
6.15545e-07
6.33805e-07
6.52495e-07
6.71625e-07
6.91202e-07
7.11233e-07
7.31727e-07
7.5269e-07
7.74132e-07
7.9606e-07
8.18482e-07
8.41405e-07
8.64839e-07
8.88792e-07
9.13271e-07
9.38284e-07
9.63841e-07
9.89949e-07
1.01662e-06
1.04385e-06
1.07166e-06
1.10006e-06
1.12905e-06
1.15864e-06
1.18884e-06
1.21966e-06
1.25111e-06
1.28319e-06
1.31592e-06
1.34929e-06
1.38333e-06
1.41804e-06
1.45342e-06
1.48949e-06
1.52625e-06
1.56371e-06
1.60188e-06
1.64076e-06
1.68038e-06
1.72072e-06
1.76181e-06
1.80364e-06
1.84623e-06
1.88958e-06
1.93371e-06
1.97861e-06
2.0243e-06
2.07078e-06
2.11805e-06
2.16614e-06
2.21503e-06
2.26475e-06
2.31529e-06
2.36666e-06
2.41886e-06
2.47191e-06
2.5258e-06
2.58055e-06
2.63616e-06
2.69263e-06
2.74997e-06
2.80818e-06
2.86726e-06
2.92722e-06
2.98807e-06
3.04981e-06
3.11243e-06
3.17595e-06
3.24036e-06
3.30567e-06
3.37188e-06
3.43898e-06
3.50699e-06
3.57591e-06
3.64572e-06
3.71644e-06
3.78806e-06
3.86059e-06
3.93401e-06
4.00834e-06
4.08357e-06
4.15969e-06
4.23671e-06
4.31462e-06
4.39341e-06
4.47309e-06
4.55365e-06
4.63509e-06
4.7174e-06
4.80057e-06
4.8846e-06
4.96949e-06
5.05522e-06
5.14179e-06
5.22919e-06
5.31742e-06
5.40646e-06
5.4963e-06
5.58694e-06
5.67836e-06
5.77056e-06
5.86353e-06
5.95724e-06
6.0517e-06
6.14688e-06
6.24277e-06
6.33937e-06
6.43665e-06
6.5346e-06
6.63321e-06
6.73246e-06
6.83234e-06
6.93282e-06
7.03389e-06
7.13553e-06
7.23773e-06
7.34046e-06
7.44371e-06
7.54746e-06
7.65168e-06
7.75636e-06
7.86147e-06
7.967e-06
8.07291e-06
8.1792e-06
8.28583e-06
8.39277e-06
8.50002e-06
8.60754e-06
8.71531e-06
8.8233e-06
8.93148e-06
9.03984e-06
9.14834e-06
9.25696e-06
9.36567e-06
9.47444e-06
9.58324e-06
9.69205e-06
9.80084e-06
9.90957e-06
1.00182e-05
1.01268e-05
1.02352e-05
1.03434e-05
1.04514e-05
1.05592e-05
1.06667e-05
1.0774e-05
1.08809e-05
1.09874e-05
1.10936e-05
1.11993e-05
1.13046e-05
1.14094e-05
1.15137e-05
1.16174e-05
1.17205e-05
1.18231e-05
1.19249e-05
1.20261e-05
1.21266e-05
1.22263e-05
1.23253e-05
1.24234e-05
1.25207e-05
1.26171e-05
1.27126e-05
1.28072e-05
1.29008e-05
1.29934e-05
1.30849e-05
1.31754e-05
1.32648e-05
1.3353e-05
1.34401e-05
1.3526e-05
1.36106e-05
1.3694e-05
1.37761e-05
1.3857e-05
1.39364e-05
1.40145e-05
1.40912e-05
1.41665e-05
1.42403e-05
1.43126e-05
1.43834e-05
1.44527e-05
1.45204e-05
1.45866e-05
1.46511e-05
1.4714e-05
1.47752e-05
1.48348e-05
1.48927e-05
1.49488e-05
1.50032e-05
1.50558e-05
1.51067e-05
1.51557e-05
1.5203e-05
1.52483e-05
1.52919e-05
1.53335e-05
1.53733e-05
1.54112e-05
1.54471e-05
1.54811e-05
1.55132e-05
1.55434e-05
1.55715e-05
1.55977e-05
1.56219e-05
1.56441e-05
1.56644e-05
1.56826e-05
1.56988e-05
1.5713e-05
1.57251e-05
1.57353e-05
1.57434e-05
1.57495e-05
1.57536e-05
1.57556e-05
1.57556e-05
1.57537e-05
1.57496e-05
1.57436e-05
1.57356e-05
1.57255e-05
1.57135e-05
1.56994e-05
1.56834e-05
1.56655e-05
1.56456e-05
1.56237e-05
1.56e-05
1.55743e-05
1.55467e-05
1.55173e-05
1.54861e-05
1.5453e-05
1.54181e-05
1.53815e-05
1.53431e-05
1.5303e-05
1.52613e-05
1.52179e-05
1.51729e-05
1.51263e-05
1.50782e-05
1.50287e-05
1.49777e-05
1.49254e-05
1.48717e-05
1.48168e-05
1.47608e-05
1.47036e-05
1.46454e-05
1.45863e-05
1.45263e-05
1.44656e-05
1.44042e-05
1.43423e-05
1.428e-05
1.42174e-05
1.41546e-05
1.4092e-05
1.40295e-05
1.39674e-05
1.39059e-05
1.38452e-05
1.37855e-05
1.37272e-05
1.36704e-05
1.36155e-05
1.35628e-05
1.35127e-05
1.34655e-05
1.34217e-05
1.33816e-05
1.33458e-05
1.33147e-05
1.32888e-05
1.32687e-05
1.32548e-05
1.32477e-05
9.47781e-11
3.04063e-10
5.34857e-10
7.87828e-10
1.06333e-09
1.3619e-09
1.68422e-09
2.03119e-09
2.40382e-09
2.80328e-09
3.23083e-09
3.68781e-09
4.17563e-09
4.69576e-09
5.24967e-09
5.8389e-09
6.46501e-09
7.12958e-09
7.83421e-09
8.58055e-09
9.37024e-09
1.0205e-08
1.10865e-08
1.20164e-08
1.29967e-08
1.4029e-08
1.51151e-08
1.62571e-08
1.74567e-08
1.87159e-08
2.00366e-08
2.14209e-08
2.28708e-08
2.43884e-08
2.59758e-08
2.76352e-08
2.93688e-08
3.11787e-08
3.30674e-08
3.50371e-08
3.70902e-08
3.92291e-08
4.14563e-08
4.37743e-08
4.61857e-08
4.86929e-08
5.12988e-08
5.4006e-08
5.68173e-08
5.97354e-08
6.27633e-08
6.59038e-08
6.91599e-08
7.25346e-08
7.60311e-08
7.96523e-08
8.34017e-08
8.72823e-08
9.12975e-08
9.54508e-08
9.97455e-08
1.04185e-07
1.08773e-07
1.13514e-07
1.1841e-07
1.23466e-07
1.28685e-07
1.34072e-07
1.3963e-07
1.45363e-07
1.51276e-07
1.57373e-07
1.63658e-07
1.70136e-07
1.7681e-07
1.83686e-07
1.90767e-07
1.98059e-07
2.05567e-07
2.13295e-07
2.21248e-07
2.29431e-07
2.37849e-07
2.46508e-07
2.55413e-07
2.64568e-07
2.7398e-07
2.83653e-07
2.93594e-07
3.03809e-07
3.14302e-07
3.2508e-07
3.36148e-07
3.47514e-07
3.59182e-07
3.71159e-07
3.83452e-07
3.96066e-07
4.09008e-07
4.22285e-07
4.35904e-07
4.4987e-07
4.64192e-07
4.78875e-07
4.93927e-07
5.09354e-07
5.25165e-07
5.41365e-07
5.57963e-07
5.74966e-07
5.92381e-07
6.10215e-07
6.28477e-07
6.47174e-07
6.66314e-07
6.85904e-07
7.05953e-07
7.26468e-07
7.47457e-07
7.68929e-07
7.90891e-07
8.13352e-07
8.36321e-07
8.59804e-07
8.83811e-07
9.08349e-07
9.33429e-07
9.59056e-07
9.85242e-07
1.01199e-06
1.03932e-06
1.06723e-06
1.09573e-06
1.12483e-06
1.15454e-06
1.18486e-06
1.21581e-06
1.2474e-06
1.27963e-06
1.31251e-06
1.34606e-06
1.38027e-06
1.41516e-06
1.45073e-06
1.487e-06
1.52398e-06
1.56166e-06
1.60007e-06
1.6392e-06
1.67907e-06
1.71968e-06
1.76105e-06
1.80317e-06
1.84607e-06
1.88974e-06
1.93419e-06
1.97944e-06
2.02548e-06
2.07234e-06
2.12e-06
2.16848e-06
2.2178e-06
2.26794e-06
2.31893e-06
2.37076e-06
2.42345e-06
2.477e-06
2.53141e-06
2.58669e-06
2.64285e-06
2.69989e-06
2.75782e-06
2.81664e-06
2.87635e-06
2.93697e-06
2.99848e-06
3.06091e-06
3.12425e-06
3.1885e-06
3.25367e-06
3.31976e-06
3.38677e-06
3.4547e-06
3.52356e-06
3.59335e-06
3.66406e-06
3.73571e-06
3.80828e-06
3.88178e-06
3.95621e-06
4.03156e-06
4.10785e-06
4.18505e-06
4.26318e-06
4.34223e-06
4.4222e-06
4.50308e-06
4.58487e-06
4.66756e-06
4.75116e-06
4.83565e-06
4.92103e-06
5.0073e-06
5.09444e-06
5.18246e-06
5.27134e-06
5.36107e-06
5.45165e-06
5.54307e-06
5.63532e-06
5.72839e-06
5.82227e-06
5.91694e-06
6.01241e-06
6.10864e-06
6.20564e-06
6.30339e-06
6.40188e-06
6.50108e-06
6.60099e-06
6.7016e-06
6.80288e-06
6.90483e-06
7.00741e-06
7.11063e-06
7.21445e-06
7.31887e-06
7.42385e-06
7.52939e-06
7.63547e-06
7.74205e-06
7.84913e-06
7.95669e-06
8.06469e-06
8.17311e-06
8.28195e-06
8.39116e-06
8.50073e-06
8.61064e-06
8.72085e-06
8.83135e-06
8.94211e-06
9.0531e-06
9.1643e-06
9.27567e-06
9.3872e-06
9.49885e-06
9.6106e-06
9.72241e-06
9.83426e-06
9.94613e-06
1.0058e-05
1.01698e-05
1.02815e-05
1.03931e-05
1.05046e-05
1.06158e-05
1.07269e-05
1.08378e-05
1.09484e-05
1.10587e-05
1.11686e-05
1.12782e-05
1.13874e-05
1.14962e-05
1.16045e-05
1.17123e-05
1.18196e-05
1.19263e-05
1.20324e-05
1.21379e-05
1.22427e-05
1.23469e-05
1.24503e-05
1.25529e-05
1.26547e-05
1.27558e-05
1.28559e-05
1.29552e-05
1.30535e-05
1.31508e-05
1.32472e-05
1.33425e-05
1.34368e-05
1.353e-05
1.3622e-05
1.37129e-05
1.38026e-05
1.3891e-05
1.39783e-05
1.40642e-05
1.41488e-05
1.42321e-05
1.43139e-05
1.43944e-05
1.44735e-05
1.45511e-05
1.46272e-05
1.47017e-05
1.47748e-05
1.48462e-05
1.49161e-05
1.49843e-05
1.50509e-05
1.51158e-05
1.5179e-05
1.52405e-05
1.53002e-05
1.53582e-05
1.54144e-05
1.54687e-05
1.55213e-05
1.5572e-05
1.56208e-05
1.56677e-05
1.57127e-05
1.57558e-05
1.5797e-05
1.58362e-05
1.58735e-05
1.59087e-05
1.5942e-05
1.59733e-05
1.60025e-05
1.60297e-05
1.60549e-05
1.6078e-05
1.60991e-05
1.61181e-05
1.61351e-05
1.615e-05
1.61628e-05
1.61735e-05
1.61822e-05
1.61887e-05
1.61932e-05
1.61956e-05
1.61959e-05
1.61942e-05
1.61904e-05
1.61845e-05
1.61765e-05
1.61665e-05
1.61544e-05
1.61403e-05
1.61241e-05
1.61059e-05
1.60858e-05
1.60636e-05
1.60394e-05
1.60133e-05
1.59853e-05
1.59553e-05
1.59235e-05
1.58897e-05
1.58542e-05
1.58168e-05
1.57776e-05
1.57366e-05
1.56939e-05
1.56496e-05
1.56035e-05
1.55559e-05
1.55067e-05
1.5456e-05
1.54038e-05
1.53502e-05
1.52952e-05
1.5239e-05
1.51815e-05
1.51229e-05
1.50633e-05
1.50026e-05
1.49411e-05
1.48787e-05
1.48157e-05
1.47522e-05
1.46882e-05
1.46239e-05
1.45594e-05
1.4495e-05
1.44307e-05
1.43668e-05
1.43035e-05
1.4241e-05
1.41795e-05
1.41193e-05
1.40607e-05
1.4004e-05
1.39495e-05
1.38976e-05
1.38487e-05
1.38032e-05
1.37615e-05
1.37241e-05
1.36916e-05
1.36645e-05
1.36433e-05
1.36286e-05
1.36209e-05
9.29807e-11
2.98234e-10
5.24233e-10
7.7214e-10
1.04278e-09
1.33687e-09
1.65518e-09
1.99859e-09
2.36812e-09
2.76492e-09
3.19023e-09
3.64538e-09
4.13179e-09
4.65089e-09
5.20418e-09
5.79321e-09
6.41952e-09
7.08472e-09
7.79044e-09
8.53832e-09
9.33003e-09
1.01673e-08
1.10519e-08
1.19855e-08
1.297e-08
1.40072e-08
1.50989e-08
1.62471e-08
1.74537e-08
1.87208e-08
2.00502e-08
2.1444e-08
2.29044e-08
2.44335e-08
2.60334e-08
2.77064e-08
2.94546e-08
3.12805e-08
3.31863e-08
3.51745e-08
3.72474e-08
3.94076e-08
4.16575e-08
4.39997e-08
4.64369e-08
4.89717e-08
5.16068e-08
5.4345e-08
5.71892e-08
6.01421e-08
6.32067e-08
6.63861e-08
6.96832e-08
7.31011e-08
7.6643e-08
8.03122e-08
8.41118e-08
8.80452e-08
9.21158e-08
9.63271e-08
1.00683e-07
1.05186e-07
1.0984e-07
1.1465e-07
1.19619e-07
1.24751e-07
1.30049e-07
1.35518e-07
1.41162e-07
1.46985e-07
1.52991e-07
1.59185e-07
1.6557e-07
1.72152e-07
1.78935e-07
1.85923e-07
1.93122e-07
2.00535e-07
2.08168e-07
2.16026e-07
2.24114e-07
2.32437e-07
2.41e-07
2.49808e-07
2.58867e-07
2.68182e-07
2.77759e-07
2.87603e-07
2.9772e-07
3.08116e-07
3.18797e-07
3.29769e-07
3.41037e-07
3.52609e-07
3.64489e-07
3.76685e-07
3.89204e-07
4.0205e-07
4.15232e-07
4.28756e-07
4.42628e-07
4.56855e-07
4.71445e-07
4.86405e-07
5.0174e-07
5.1746e-07
5.33571e-07
5.5008e-07
5.66995e-07
5.84323e-07
6.02072e-07
6.2025e-07
6.38865e-07
6.57924e-07
6.77435e-07
6.97406e-07
7.17846e-07
7.38762e-07
7.60162e-07
7.82055e-07
8.0445e-07
8.27354e-07
8.50776e-07
8.74724e-07
8.99207e-07
9.24234e-07
9.49812e-07
9.75952e-07
1.00266e-06
1.02995e-06
1.05782e-06
1.08629e-06
1.11536e-06
1.14505e-06
1.17536e-06
1.2063e-06
1.23788e-06
1.27011e-06
1.303e-06
1.33655e-06
1.37078e-06
1.40569e-06
1.44129e-06
1.4776e-06
1.51461e-06
1.55235e-06
1.59081e-06
1.63001e-06
1.66995e-06
1.71064e-06
1.7521e-06
1.79432e-06
1.83732e-06
1.88111e-06
1.92569e-06
1.97108e-06
2.01727e-06
2.06428e-06
2.11211e-06
2.16078e-06
2.21028e-06
2.26063e-06
2.31184e-06
2.3639e-06
2.41683e-06
2.47063e-06
2.52532e-06
2.58088e-06
2.63734e-06
2.6947e-06
2.75296e-06
2.81212e-06
2.87219e-06
2.93319e-06
2.9951e-06
3.05794e-06
3.12171e-06
3.18641e-06
3.25204e-06
3.31862e-06
3.38614e-06
3.4546e-06
3.524e-06
3.59436e-06
3.66566e-06
3.73792e-06
3.81112e-06
3.88528e-06
3.96039e-06
4.03644e-06
4.11345e-06
4.19141e-06
4.27031e-06
4.35016e-06
4.43095e-06
4.51268e-06
4.59535e-06
4.67895e-06
4.76347e-06
4.84892e-06
4.93529e-06
5.02258e-06
5.11076e-06
5.19985e-06
5.28984e-06
5.3807e-06
5.47245e-06
5.56507e-06
5.65854e-06
5.75287e-06
5.84803e-06
5.94403e-06
6.04085e-06
6.13847e-06
6.23689e-06
6.33609e-06
6.43607e-06
6.53679e-06
6.63826e-06
6.74046e-06
6.84337e-06
6.94697e-06
7.05126e-06
7.1562e-06
7.26179e-06
7.36801e-06
7.47484e-06
7.58225e-06
7.69024e-06
7.79878e-06
7.90784e-06
8.01741e-06
8.12747e-06
8.238e-06
8.34896e-06
8.46035e-06
8.57213e-06
8.68428e-06
8.79677e-06
8.90959e-06
9.0227e-06
9.13608e-06
9.24971e-06
9.36354e-06
9.47757e-06
9.59176e-06
9.70608e-06
9.8205e-06
9.935e-06
1.00495e-05
1.01641e-05
1.02786e-05
1.03931e-05
1.05076e-05
1.06219e-05
1.07361e-05
1.08501e-05
1.09639e-05
1.10774e-05
1.11907e-05
1.13037e-05
1.14164e-05
1.15287e-05
1.16406e-05
1.1752e-05
1.1863e-05
1.19735e-05
1.20835e-05
1.21929e-05
1.23017e-05
1.24098e-05
1.25173e-05
1.26241e-05
1.27301e-05
1.28353e-05
1.29398e-05
1.30434e-05
1.31461e-05
1.32479e-05
1.33487e-05
1.34486e-05
1.35475e-05
1.36453e-05
1.3742e-05
1.38376e-05
1.39321e-05
1.40253e-05
1.41174e-05
1.42082e-05
1.42978e-05
1.4386e-05
1.44729e-05
1.45584e-05
1.46425e-05
1.47252e-05
1.48064e-05
1.48861e-05
1.49643e-05
1.50409e-05
1.5116e-05
1.51894e-05
1.52613e-05
1.53314e-05
1.53999e-05
1.54667e-05
1.55317e-05
1.5595e-05
1.56565e-05
1.57161e-05
1.5774e-05
1.583e-05
1.58841e-05
1.59364e-05
1.59867e-05
1.60351e-05
1.60815e-05
1.6126e-05
1.61685e-05
1.6209e-05
1.62475e-05
1.6284e-05
1.63184e-05
1.63508e-05
1.63811e-05
1.64093e-05
1.64355e-05
1.64595e-05
1.64815e-05
1.65013e-05
1.65191e-05
1.65347e-05
1.65482e-05
1.65595e-05
1.65688e-05
1.65758e-05
1.65808e-05
1.65836e-05
1.65843e-05
1.65829e-05
1.65794e-05
1.65737e-05
1.65659e-05
1.6556e-05
1.6544e-05
1.65299e-05
1.65137e-05
1.64955e-05
1.64752e-05
1.64528e-05
1.64285e-05
1.64021e-05
1.63737e-05
1.63434e-05
1.63111e-05
1.62769e-05
1.62408e-05
1.62028e-05
1.6163e-05
1.61214e-05
1.6078e-05
1.60328e-05
1.5986e-05
1.59375e-05
1.58874e-05
1.58357e-05
1.57825e-05
1.57279e-05
1.56718e-05
1.56145e-05
1.55559e-05
1.5496e-05
1.54351e-05
1.53732e-05
1.53103e-05
1.52467e-05
1.51822e-05
1.51172e-05
1.50518e-05
1.4986e-05
1.492e-05
1.4854e-05
1.47881e-05
1.47226e-05
1.46577e-05
1.45935e-05
1.45304e-05
1.44685e-05
1.44082e-05
1.43498e-05
1.42936e-05
1.424e-05
1.41894e-05
1.41423e-05
1.4099e-05
1.40601e-05
1.40261e-05
1.39976e-05
1.39753e-05
1.39597e-05
1.39515e-05
9.12836e-11
2.92702e-10
5.14167e-10
7.5696e-10
1.02222e-09
1.31094e-09
1.62406e-09
1.96257e-09
2.32757e-09
2.72021e-09
3.14176e-09
3.59355e-09
4.07696e-09
4.59343e-09
5.14447e-09
5.73158e-09
6.35634e-09
7.02033e-09
7.72519e-09
8.47258e-09
9.26419e-09
1.01017e-08
1.0987e-08
1.19217e-08
1.29078e-08
1.3947e-08
1.50413e-08
1.61926e-08
1.74029e-08
1.86742e-08
2.00085e-08
2.14079e-08
2.28746e-08
2.44107e-08
2.60185e-08
2.77002e-08
2.9458e-08
3.12944e-08
3.32118e-08
3.52124e-08
3.72989e-08
3.94738e-08
4.17396e-08
4.40989e-08
4.65544e-08
4.91089e-08
5.1765e-08
5.45257e-08
5.73938e-08
6.03723e-08
6.3464e-08
6.66721e-08
6.99997e-08
7.34499e-08
7.70259e-08
8.0731e-08
8.45685e-08
8.85419e-08
9.26546e-08
9.69101e-08
1.01312e-07
1.05864e-07
1.1057e-07
1.15433e-07
1.20458e-07
1.25648e-07
1.31008e-07
1.36541e-07
1.42252e-07
1.48144e-07
1.54223e-07
1.60492e-07
1.66957e-07
1.7362e-07
1.80488e-07
1.87565e-07
1.94856e-07
2.02365e-07
2.10097e-07
2.18058e-07
2.26253e-07
2.34686e-07
2.43364e-07
2.52291e-07
2.61473e-07
2.70915e-07
2.80624e-07
2.90604e-07
3.00862e-07
3.11404e-07
3.22235e-07
3.33362e-07
3.4479e-07
3.56527e-07
3.68578e-07
3.8095e-07
3.9365e-07
4.06684e-07
4.20058e-07
4.3378e-07
4.47857e-07
4.62295e-07
4.77102e-07
4.92285e-07
5.0785e-07
5.23806e-07
5.4016e-07
5.56919e-07
5.74091e-07
5.91683e-07
6.09704e-07
6.2816e-07
6.47061e-07
6.66414e-07
6.86227e-07
7.06509e-07
7.27266e-07
7.48509e-07
7.70244e-07
7.92481e-07
8.15228e-07
8.38493e-07
8.62286e-07
8.86614e-07
9.11486e-07
9.36911e-07
9.62899e-07
9.89456e-07
1.01659e-06
1.04432e-06
1.07264e-06
1.10157e-06
1.13112e-06
1.16129e-06
1.19209e-06
1.22353e-06
1.25563e-06
1.28838e-06
1.32181e-06
1.35591e-06
1.3907e-06
1.42619e-06
1.46238e-06
1.49929e-06
1.53692e-06
1.57528e-06
1.61438e-06
1.65424e-06
1.69484e-06
1.73622e-06
1.77837e-06
1.82131e-06
1.86503e-06
1.90956e-06
1.9549e-06
2.00105e-06
2.04802e-06
2.09583e-06
2.14448e-06
2.19398e-06
2.24433e-06
2.29554e-06
2.34762e-06
2.40058e-06
2.45442e-06
2.50915e-06
2.56478e-06
2.62131e-06
2.67875e-06
2.7371e-06
2.79637e-06
2.85656e-06
2.91769e-06
2.97974e-06
3.04274e-06
3.10668e-06
3.17157e-06
3.23741e-06
3.30421e-06
3.37196e-06
3.44067e-06
3.51034e-06
3.58098e-06
3.65259e-06
3.72516e-06
3.79871e-06
3.87322e-06
3.94871e-06
4.02516e-06
4.10259e-06
4.18098e-06
4.26034e-06
4.34067e-06
4.42197e-06
4.50422e-06
4.58744e-06
4.67161e-06
4.75673e-06
4.8428e-06
4.92982e-06
5.01777e-06
5.10666e-06
5.19647e-06
5.2872e-06
5.37884e-06
5.47139e-06
5.56484e-06
5.65918e-06
5.75439e-06
5.85047e-06
5.94742e-06
6.04521e-06
6.14384e-06
6.2433e-06
6.34357e-06
6.44464e-06
6.5465e-06
6.64914e-06
6.75253e-06
6.85667e-06
6.96153e-06
7.06711e-06
7.17339e-06
7.28034e-06
7.38796e-06
7.49622e-06
7.60511e-06
7.71459e-06
7.82467e-06
7.93531e-06
8.04649e-06
8.1582e-06
8.2704e-06
8.38309e-06
8.49622e-06
8.60979e-06
8.72377e-06
8.83813e-06
8.95285e-06
9.0679e-06
9.18325e-06
9.29889e-06
9.41478e-06
9.53089e-06
9.6472e-06
9.76368e-06
9.88029e-06
9.99702e-06
1.01138e-05
1.02307e-05
1.03476e-05
1.04645e-05
1.05813e-05
1.0698e-05
1.08147e-05
1.09312e-05
1.10476e-05
1.11637e-05
1.12796e-05
1.13953e-05
1.15106e-05
1.16257e-05
1.17403e-05
1.18546e-05
1.19684e-05
1.20817e-05
1.21945e-05
1.23068e-05
1.24186e-05
1.25297e-05
1.26401e-05
1.27499e-05
1.2859e-05
1.29673e-05
1.30748e-05
1.31815e-05
1.32874e-05
1.33924e-05
1.34964e-05
1.35995e-05
1.37016e-05
1.38026e-05
1.39026e-05
1.40015e-05
1.40993e-05
1.41959e-05
1.42913e-05
1.43854e-05
1.44783e-05
1.45699e-05
1.46602e-05
1.47491e-05
1.48366e-05
1.49227e-05
1.50073e-05
1.50904e-05
1.5172e-05
1.52521e-05
1.53306e-05
1.54075e-05
1.54827e-05
1.55563e-05
1.56282e-05
1.56984e-05
1.57668e-05
1.58335e-05
1.58984e-05
1.59615e-05
1.60227e-05
1.60821e-05
1.61395e-05
1.61951e-05
1.62488e-05
1.63005e-05
1.63502e-05
1.6398e-05
1.64437e-05
1.64875e-05
1.65292e-05
1.65688e-05
1.66064e-05
1.66419e-05
1.66753e-05
1.67066e-05
1.67358e-05
1.67629e-05
1.67879e-05
1.68107e-05
1.68313e-05
1.68498e-05
1.68661e-05
1.68803e-05
1.68923e-05
1.69021e-05
1.69097e-05
1.69152e-05
1.69185e-05
1.69196e-05
1.69186e-05
1.69154e-05
1.691e-05
1.69024e-05
1.68927e-05
1.68808e-05
1.68668e-05
1.68507e-05
1.68325e-05
1.68121e-05
1.67897e-05
1.67652e-05
1.67387e-05
1.67101e-05
1.66796e-05
1.6647e-05
1.66124e-05
1.6576e-05
1.65376e-05
1.64973e-05
1.64552e-05
1.64112e-05
1.63655e-05
1.6318e-05
1.62688e-05
1.6218e-05
1.61656e-05
1.61116e-05
1.60561e-05
1.59992e-05
1.59409e-05
1.58814e-05
1.58206e-05
1.57586e-05
1.56956e-05
1.56316e-05
1.55668e-05
1.55012e-05
1.5435e-05
1.53683e-05
1.53012e-05
1.52339e-05
1.51666e-05
1.50994e-05
1.50325e-05
1.49661e-05
1.49004e-05
1.48358e-05
1.47724e-05
1.47106e-05
1.46507e-05
1.45929e-05
1.45378e-05
1.44856e-05
1.44369e-05
1.43921e-05
1.43517e-05
1.43164e-05
1.42866e-05
1.42631e-05
1.42467e-05
1.4238e-05
8.97816e-11
2.8779e-10
5.05229e-10
7.43359e-10
1.00348e-09
1.2868e-09
1.59447e-09
1.92765e-09
2.28753e-09
2.67534e-09
3.09239e-09
3.54e-09
4.01958e-09
4.53256e-09
5.08041e-09
5.66465e-09
6.28684e-09
6.94854e-09
7.65141e-09
8.39708e-09
9.18725e-09
1.00237e-08
1.09081e-08
1.18423e-08
1.28281e-08
1.38675e-08
1.49624e-08
1.61146e-08
1.73263e-08
1.85994e-08
1.9936e-08
2.13382e-08
2.28083e-08
2.43483e-08
2.59606e-08
2.76474e-08
2.94111e-08
3.1254e-08
3.31786e-08
3.51873e-08
3.72827e-08
3.94673e-08
4.17437e-08
4.41146e-08
4.65827e-08
4.91508e-08
5.18216e-08
5.45981e-08
5.74831e-08
6.04797e-08
6.35908e-08
6.68196e-08
7.01693e-08
7.36429e-08
7.72437e-08
8.09752e-08
8.48407e-08
8.88436e-08
9.29874e-08
9.72758e-08
1.01712e-07
1.06301e-07
1.11045e-07
1.15948e-07
1.21016e-07
1.2625e-07
1.31656e-07
1.37238e-07
1.42999e-07
1.48945e-07
1.55079e-07
1.61406e-07
1.67931e-07
1.74657e-07
1.81591e-07
1.88736e-07
1.96098e-07
2.0368e-07
2.1149e-07
2.1953e-07
2.27807e-07
2.36327e-07
2.45093e-07
2.54112e-07
2.6339e-07
2.72931e-07
2.82742e-07
2.92829e-07
3.03197e-07
3.13852e-07
3.24801e-07
3.36049e-07
3.47603e-07
3.5947e-07
3.71655e-07
3.84165e-07
3.97007e-07
4.10188e-07
4.23714e-07
4.37593e-07
4.51831e-07
4.66435e-07
4.81413e-07
4.96771e-07
5.12518e-07
5.28661e-07
5.45207e-07
5.62164e-07
5.79539e-07
5.9734e-07
6.15576e-07
6.34254e-07
6.53382e-07
6.72969e-07
6.93021e-07
7.13549e-07
7.3456e-07
7.56062e-07
7.78064e-07
8.00574e-07
8.23602e-07
8.47155e-07
8.71243e-07
8.95873e-07
9.21056e-07
9.468e-07
9.73114e-07
1.00001e-06
1.02749e-06
1.05556e-06
1.08425e-06
1.11354e-06
1.14346e-06
1.17402e-06
1.20522e-06
1.23707e-06
1.26957e-06
1.30275e-06
1.33661e-06
1.37116e-06
1.4064e-06
1.44235e-06
1.47902e-06
1.51641e-06
1.55453e-06
1.5934e-06
1.63302e-06
1.67339e-06
1.71454e-06
1.75647e-06
1.79918e-06
1.84269e-06
1.887e-06
1.93212e-06
1.97806e-06
2.02484e-06
2.07245e-06
2.1209e-06
2.17021e-06
2.22037e-06
2.27141e-06
2.32332e-06
2.37611e-06
2.4298e-06
2.48438e-06
2.53986e-06
2.59625e-06
2.65356e-06
2.71179e-06
2.77095e-06
2.83104e-06
2.89208e-06
2.95405e-06
3.01698e-06
3.08086e-06
3.1457e-06
3.2115e-06
3.27827e-06
3.346e-06
3.41471e-06
3.4844e-06
3.55506e-06
3.62671e-06
3.69934e-06
3.77295e-06
3.84755e-06
3.92313e-06
3.9997e-06
4.07726e-06
4.1558e-06
4.23533e-06
4.31584e-06
4.39734e-06
4.47982e-06
4.56328e-06
4.64771e-06
4.73311e-06
4.81949e-06
4.90683e-06
4.99512e-06
5.08438e-06
5.17458e-06
5.26573e-06
5.35781e-06
5.45082e-06
5.54475e-06
5.6396e-06
5.73535e-06
5.832e-06
5.92953e-06
6.02794e-06
6.12721e-06
6.22734e-06
6.32831e-06
6.43011e-06
6.53273e-06
6.63615e-06
6.74036e-06
6.84534e-06
6.95108e-06
7.05757e-06
7.16479e-06
7.27271e-06
7.38133e-06
7.49063e-06
7.60058e-06
7.71117e-06
7.82238e-06
7.93419e-06
8.04658e-06
8.15952e-06
8.273e-06
8.38699e-06
8.50147e-06
8.61641e-06
8.7318e-06
8.84761e-06
8.96381e-06
9.08038e-06
9.1973e-06
9.31452e-06
9.43204e-06
9.54982e-06
9.66783e-06
9.78605e-06
9.90444e-06
1.0023e-05
1.01416e-05
1.02604e-05
1.03792e-05
1.0498e-05
1.06169e-05
1.07356e-05
1.08544e-05
1.0973e-05
1.10915e-05
1.12098e-05
1.13279e-05
1.14458e-05
1.15635e-05
1.16808e-05
1.17978e-05
1.19144e-05
1.20306e-05
1.21464e-05
1.22618e-05
1.23766e-05
1.24908e-05
1.26045e-05
1.27176e-05
1.283e-05
1.29418e-05
1.30528e-05
1.3163e-05
1.32725e-05
1.33811e-05
1.34889e-05
1.35958e-05
1.37017e-05
1.38067e-05
1.39107e-05
1.40136e-05
1.41155e-05
1.42162e-05
1.43158e-05
1.44142e-05
1.45114e-05
1.46074e-05
1.4702e-05
1.47954e-05
1.48874e-05
1.4978e-05
1.50673e-05
1.5155e-05
1.52413e-05
1.53261e-05
1.54094e-05
1.54911e-05
1.55711e-05
1.56496e-05
1.57264e-05
1.58015e-05
1.58749e-05
1.59466e-05
1.60165e-05
1.60846e-05
1.61509e-05
1.62153e-05
1.62779e-05
1.63386e-05
1.63974e-05
1.64542e-05
1.65091e-05
1.6562e-05
1.6613e-05
1.66619e-05
1.67088e-05
1.67536e-05
1.67964e-05
1.6837e-05
1.68756e-05
1.69121e-05
1.69464e-05
1.69787e-05
1.70087e-05
1.70366e-05
1.70624e-05
1.70859e-05
1.71073e-05
1.71265e-05
1.71435e-05
1.71583e-05
1.71709e-05
1.71812e-05
1.71894e-05
1.71953e-05
1.7199e-05
1.72006e-05
1.71999e-05
1.71971e-05
1.7192e-05
1.71847e-05
1.71752e-05
1.71635e-05
1.71497e-05
1.71337e-05
1.71155e-05
1.70952e-05
1.70728e-05
1.70483e-05
1.70217e-05
1.6993e-05
1.69623e-05
1.69295e-05
1.68947e-05
1.6858e-05
1.68193e-05
1.67787e-05
1.67362e-05
1.66918e-05
1.66457e-05
1.65977e-05
1.6548e-05
1.64966e-05
1.64436e-05
1.6389e-05
1.63329e-05
1.62753e-05
1.62163e-05
1.61559e-05
1.60943e-05
1.60316e-05
1.59677e-05
1.59028e-05
1.58371e-05
1.57705e-05
1.57033e-05
1.56356e-05
1.55674e-05
1.5499e-05
1.54306e-05
1.53622e-05
1.52941e-05
1.52265e-05
1.51596e-05
1.50937e-05
1.5029e-05
1.49659e-05
1.49046e-05
1.48455e-05
1.4789e-05
1.47355e-05
1.46854e-05
1.46392e-05
1.45975e-05
1.45609e-05
1.45299e-05
1.45054e-05
1.44882e-05
1.4479e-05
8.85233e-11
2.83672e-10
4.97746e-10
7.31935e-10
9.87601e-10
1.2661e-09
1.56875e-09
1.89688e-09
2.25181e-09
2.63486e-09
3.04737e-09
3.49073e-09
3.96633e-09
4.47561e-09
5.02004e-09
5.60111e-09
6.22037e-09
6.87938e-09
7.57977e-09
8.32319e-09
9.11133e-09
9.94591e-09
1.08287e-08
1.17616e-08
1.27463e-08
1.37848e-08
1.4879e-08
1.6031e-08
1.72426e-08
1.8516e-08
1.98532e-08
2.12565e-08
2.27279e-08
2.42698e-08
2.58843e-08
2.75738e-08
2.93407e-08
3.11874e-08
3.31163e-08
3.51299e-08
3.72308e-08
3.94215e-08
4.17047e-08
4.40831e-08
4.65595e-08
4.91366e-08
5.18172e-08
5.46044e-08
5.75009e-08
6.051e-08
6.36345e-08
6.68777e-08
7.02427e-08
7.37327e-08
7.73512e-08
8.11013e-08
8.49867e-08
8.90107e-08
9.31768e-08
9.74889e-08
1.0195e-07
1.06565e-07
1.11337e-07
1.1627e-07
1.21368e-07
1.26635e-07
1.32075e-07
1.37692e-07
1.43491e-07
1.49476e-07