/*--------------------------------*- C++ -*----------------------------------*\
  =========                 |
  \\      /  F ield         | OpenFOAM: The Open Source CFD Toolbox
   \\    /   O peration     | Website:  https://openfoam.org
    \\  /    A nd           | Version:  dev
     \\/     M anipulation  |
\*---------------------------------------------------------------------------*/
FoamFile
{
    format      ascii;
    class       volScalarField;
    location    "0.1";
    object      beta;
}
// * * * * * * * * * * * * * * * * * * * * * * * * * * * * * * * * * * * * * //

dimensions      [0 0 0 0 0 0 0];

internalField   uniform 0;

boundaryField
{
    frontAndBack
    {
        type            empty;
    }
    inlet
    {
        type            calculated;
        value           uniform 0;
    }
    outlet
    {
        type            calculated;
        value           uniform 0;
    }
    substrate
    {
        type            calculated;
        value           nonuniform List<scalar> 
400
(
0.00384537
0.00404185
0.00419762
0.00434252
0.00448102
0.00461365
0.00474152
0.00486559
0.00498654
0.00510486
0.00522091
0.00533496
0.00544722
0.00555785
0.00566696
0.00577462
0.00588089
0.00598579
0.00608933
0.0061915
0.00629231
0.00639172
0.00648971
0.00658627
0.00668135
0.00677493
0.00686699
0.00695749
0.00704641
0.00713374
0.00721944
0.0073035
0.0073859
0.00746663
0.00754569
0.00762306
0.00769874
0.00777272
0.00784501
0.00791561
0.00798453
0.00805176
0.00811733
0.00818124
0.0082435
0.00830414
0.00836316
0.00842058
0.00847642
0.00853071
0.00858346
0.0086347
0.00868444
0.00873272
0.00877956
0.00882499
0.00886902
0.0089117
0.00895304
0.00899307
0.00903182
0.00906932
0.00910559
0.00914067
0.00917458
0.00920735
0.00923901
0.00926959
0.00929911
0.0093276
0.00935509
0.0093816
0.00940717
0.00943182
0.00945557
0.00947846
0.0095005
0.00952173
0.00954215
0.00956182
0.00958073
0.00959892
0.00961641
0.00963323
0.00964939
0.00966491
0.00967982
0.00969414
0.00970789
0.00972108
0.00973374
0.00974588
0.00975752
0.00976869
0.00977939
0.00978964
0.00979946
0.00980887
0.00981788
0.0098265
0.00983476
0.00984265
0.00985021
0.00985743
0.00986434
0.00987094
0.00987725
0.00988328
0.00988903
0.00989453
0.00989978
0.00990479
0.00990957
0.00991413
0.00991848
0.00992263
0.00992658
0.00993035
0.00993394
0.00993736
0.00994062
0.00994372
0.00994667
0.00994948
0.00995215
0.00995469
0.00995711
0.00995941
0.0099616
0.00996367
0.00996564
0.00996752
0.00996929
0.00997098
0.00997259
0.00997411
0.00997555
0.00997692
0.00997821
0.00997944
0.00998061
0.00998171
0.00998275
0.00998374
0.00998468
0.00998557
0.00998641
0.0099872
0.00998795
0.00998866
0.00998933
0.00998996
0.00999056
0.00999113
0.00999166
0.00999216
0.00999264
0.00999309
0.00999351
0.00999391
0.00999428
0.00999464
0.00999497
0.00999529
0.00999558
0.00999586
0.00999612
0.00999637
0.0099966
0.00999682
0.00999702
0.00999722
0.0099974
0.00999757
0.00999772
0.00999787
0.00999801
0.00999815
0.00999827
0.00999839
0.00999849
0.0099986
0.00999869
0.00999878
0.00999886
0.00999894
0.00999901
0.00999908
0.00999915
0.00999921
0.00999926
0.00999931
0.00999936
0.00999941
0.00999945
0.00999949
0.00999953
0.00999956
0.00999959
0.00999962
0.00999965
0.00999967
0.0099997
0.00999972
0.00999974
0.00999976
0.00999978
0.0099998
0.00999981
0.00999982
0.00999984
0.00999985
0.00999986
0.00999987
0.00999988
0.00999989
0.0099999
0.00999991
0.00999992
0.00999992
0.00999993
0.00999993
0.00999994
0.00999994
0.00999995
0.00999995
0.00999996
0.00999996
0.00999996
0.00999997
0.00999997
0.00999997
0.00999997
0.00999998
0.00999998
0.00999998
0.00999998
0.00999998
0.00999998
0.00999999
0.00999999
0.00999999
0.00999999
0.00999999
0.00999999
0.00999999
0.00999999
0.00999999
0.00999999
0.00999999
0.00999999
0.01
0.01
0.01
0.01
0.01
0.01
0.01
0.01
0.01
0.01
0.01
0.01
0.01
0.01
0.01
0.01
0.01
0.01
0.01
0.01
0.01
0.01
0.01
0.01
0.01
0.01
0.01
0.01
0.01
0.01
0.01
0.01
0.01
0.01
0.01
0.01
0.01
0.01
0.01
0.01
0.01
0.01
0.01
0.01
0.01
0.01
0.01
0.01
0.01
0.01
0.01
0.01
0.01
0.01
0.01
0.01
0.01
0.01
0.01
0.01
0.01
0.01
0.01
0.01
0.01
0.01
0.01
0.01
0.01
0.01
0.01
0.01
0.01
0.01
0.01
0.01
0.01
0.01
0.01
0.01
0.01
0.01
0.01
0.01
0.01
0.01
0.01
0.01
0.01
0.01
0.01
0.01
0.01
0.01
0.01
0.01
0.01
0.01
0.01
0.01
0.01
0.01
0.01
0.01
0.01
0.01
0.01
0.01
0.01
0.01
0.01
0.01
0.01
0.01
0.01
0.01
0.01
0.01
0.01
0.01
0.01
0.01
0.01
0.01
0.01
0.01
0.01
0.01
0.01
0.01
0.01
0.01
0.01
0.01
0.01
0.01
0.01
0.01
0.01
0.01
0.01
0.01
0.01
0.01
0.01
0.01
0.01
0.01
0.01
)
;
    }
    Wall
    {
        type            calculated;
        value           nonuniform List<scalar> 
400
(
0.00384536
0.00404184
0.00419761
0.00434251
0.00448101
0.00461364
0.00474151
0.00486558
0.00498652
0.00510484
0.00522088
0.00533492
0.00544718
0.00555781
0.00566691
0.00577457
0.00588084
0.00598573
0.00608926
0.00619144
0.00629224
0.00639165
0.00648964
0.00658619
0.00668127
0.00677485
0.00686691
0.00695741
0.00704633
0.00713365
0.00721935
0.00730341
0.00738582
0.00746655
0.00754561
0.00762298
0.00769865
0.00777264
0.00784493
0.00791553
0.00798445
0.00805169
0.00811726
0.00818117
0.00824343
0.00830407
0.00836308
0.00842051
0.00847635
0.00853064
0.00858339
0.00863463
0.00868438
0.00873266
0.0087795
0.00882493
0.00886897
0.00891164
0.00895298
0.00899301
0.00903177
0.00906927
0.00910554
0.00914062
0.00917453
0.00920731
0.00923897
0.00926954
0.00929906
0.00932756
0.00935505
0.00938156
0.00940713
0.00943178
0.00945554
0.00947842
0.00950047
0.00952169
0.00954212
0.00956178
0.0095807
0.00959889
0.00961639
0.0096332
0.00964936
0.00966489
0.0096798
0.00969412
0.00970786
0.00972106
0.00973372
0.00974586
0.0097575
0.00976867
0.00977937
0.00978962
0.00979945
0.00980885
0.00981786
0.00982649
0.00983474
0.00984264
0.00985019
0.00985742
0.00986433
0.00987093
0.00987724
0.00988327
0.00988902
0.00989452
0.00989977
0.00990478
0.00990956
0.00991412
0.00991847
0.00992262
0.00992657
0.00993034
0.00993393
0.00993735
0.00994061
0.00994371
0.00994666
0.00994947
0.00995215
0.00995469
0.00995711
0.00995941
0.00996159
0.00996367
0.00996564
0.00996751
0.00996929
0.00997098
0.00997258
0.0099741
0.00997555
0.00997691
0.00997821
0.00997944
0.0099806
0.00998171
0.00998275
0.00998374
0.00998468
0.00998557
0.0099864
0.0099872
0.00998795
0.00998866
0.00998933
0.00998996
0.00999056
0.00999113
0.00999166
0.00999216
0.00999264
0.00999309
0.00999351
0.00999391
0.00999428
0.00999464
0.00999497
0.00999529
0.00999558
0.00999586
0.00999612
0.00999637
0.0099966
0.00999682
0.00999702
0.00999721
0.0099974
0.00999757
0.00999772
0.00999787
0.00999801
0.00999815
0.00999827
0.00999839
0.00999849
0.0099986
0.00999869
0.00999878
0.00999886
0.00999894
0.00999901
0.00999908
0.00999915
0.00999921
0.00999926
0.00999931
0.00999936
0.00999941
0.00999945
0.00999949
0.00999952
0.00999956
0.00999959
0.00999962
0.00999965
0.00999967
0.0099997
0.00999972
0.00999974
0.00999976
0.00999978
0.0099998
0.00999981
0.00999982
0.00999984
0.00999985
0.00999986
0.00999987
0.00999988
0.00999989
0.0099999
0.00999991
0.00999992
0.00999992
0.00999993
0.00999993
0.00999994
0.00999994
0.00999995
0.00999995
0.00999996
0.00999996
0.00999996
0.00999997
0.00999997
0.00999997
0.00999997
0.00999998
0.00999998
0.00999998
0.00999998
0.00999998
0.00999998
0.00999999
0.00999999
0.00999999
0.00999999
0.00999999
0.00999999
0.00999999
0.00999999
0.00999999
0.00999999
0.00999999
0.00999999
0.01
0.01
0.01
0.01
0.01
0.01
0.01
0.01
0.01
0.01
0.01
0.01
0.01
0.01
0.01
0.01
0.01
0.01
0.01
0.01
0.01
0.01
0.01
0.01
0.01
0.01
0.01
0.01
0.01
0.01
0.01
0.01
0.01
0.01
0.01
0.01
0.01
0.01
0.01
0.01
0.01
0.01
0.01
0.01
0.01
0.01
0.01
0.01
0.01
0.01
0.01
0.01
0.01
0.01
0.01
0.01
0.01
0.01
0.01
0.01
0.01
0.01
0.01
0.01
0.01
0.01
0.01
0.01
0.01
0.01
0.01
0.01
0.01
0.01
0.01
0.01
0.01
0.01
0.01
0.01
0.01
0.01
0.01
0.01
0.01
0.01
0.01
0.01
0.01
0.01
0.01
0.01
0.01
0.01
0.01
0.01
0.01
0.01
0.01
0.01
0.01
0.01
0.01
0.01
0.01
0.01
0.01
0.01
0.01
0.01
0.01
0.01
0.01
0.01
0.01
0.01
0.01
0.01
0.01
0.01
0.01
0.01
0.01
0.01
0.01
0.01
0.01
0.01
0.01
0.01
0.01
0.01
0.01
0.01
0.01
0.01
0.01
0.01
0.01
0.01
0.01
0.01
0.01
0.01
0.01
0.01
0.01
0.01
0.01
)
;
    }
}


// ************************************************************************* //
