/*--------------------------------*- C++ -*----------------------------------*\
  =========                 |
  \\      /  F ield         | OpenFOAM: The Open Source CFD Toolbox
   \\    /   O peration     | Website:  https://openfoam.org
    \\  /    A nd           | Version:  dev
     \\/     M anipulation  |
\*---------------------------------------------------------------------------*/
FoamFile
{
    format      ascii;
    class       volScalarField;
    location    "0.1";
    object      cov;
}
// * * * * * * * * * * * * * * * * * * * * * * * * * * * * * * * * * * * * * //

dimensions      [0 0 0 0 0 0 0];

internalField   uniform 0;

boundaryField
{
    frontAndBack
    {
        type            empty;
    }
    inlet
    {
        type            calculated;
        value           uniform 0;
    }
    outlet
    {
        type            calculated;
        value           uniform 0;
    }
    substrate
    {
        type            calculated;
        value           nonuniform List<scalar> 
400
(
0.615463
0.595815
0.580238
0.565748
0.551898
0.538635
0.525848
0.513441
0.501346
0.489514
0.477909
0.466504
0.455278
0.444215
0.433304
0.422538
0.411911
0.401421
0.391067
0.38085
0.370769
0.360828
0.351029
0.341373
0.331865
0.322507
0.313301
0.304251
0.295359
0.286626
0.278056
0.26965
0.26141
0.253337
0.245431
0.237694
0.230126
0.222728
0.215499
0.208439
0.201547
0.194824
0.188267
0.181876
0.17565
0.169586
0.163684
0.157942
0.152358
0.146929
0.141654
0.13653
0.131556
0.126728
0.122044
0.117501
0.113098
0.10883
0.104696
0.100693
0.0968181
0.0930683
0.0894409
0.085933
0.0825419
0.0792649
0.0760989
0.0730414
0.0700894
0.0672403
0.0644913
0.0618397
0.0592828
0.0568179
0.0544426
0.052154
0.0499498
0.0478275
0.0457845
0.0438185
0.041927
0.0401079
0.0383587
0.0366772
0.0350613
0.0335089
0.0320177
0.0305859
0.0292113
0.0278921
0.0266263
0.0254121
0.0242477
0.0231314
0.0220614
0.021036
0.0200538
0.0191129
0.0182121
0.0173497
0.0165244
0.0157347
0.0149793
0.0142569
0.0135662
0.012906
0.0122751
0.0116723
0.0110965
0.0105468
0.0100219
0.00952091
0.00904288
0.00858684
0.00815189
0.00773715
0.00734179
0.00696499
0.00660597
0.00626397
0.00593826
0.00562815
0.00533296
0.00505204
0.00478476
0.00453054
0.00428878
0.00405894
0.00384048
0.00363289
0.00343567
0.00324837
0.00307051
0.00290167
0.00274144
0.0025894
0.00244518
0.00230842
0.00217875
0.00205584
0.00193937
0.00182903
0.00172452
0.00162557
0.0015319
0.00144324
0.00135937
0.00128003
0.001205
0.00113407
0.00106703
0.00100368
0.000943845
0.000887335
0.000833982
0.000783623
0.000736104
0.000691276
0.000649
0.000609139
0.000571568
0.000536164
0.000502812
0.000471401
0.000441828
0.000413992
0.000387798
0.000363158
0.000339985
0.000318199
0.000297722
0.000278482
0.000260408
0.000243436
0.000227503
0.000212549
0.000198519
0.00018536
0.000173021
0.000161454
0.000150615
0.000140461
0.000130952
0.000122049
0.000113716
0.000105919
9.86267e-05
9.18075e-05
8.54332e-05
7.94765e-05
7.39118e-05
6.8715e-05
6.38634e-05
5.93355e-05
5.51109e-05
5.11708e-05
4.74971e-05
4.40729e-05
4.08823e-05
3.79104e-05
3.51431e-05
3.25672e-05
3.01701e-05
2.79403e-05
2.58668e-05
2.39392e-05
2.2148e-05
2.04839e-05
1.89385e-05
1.75039e-05
1.61725e-05
1.49373e-05
1.37918e-05
1.27299e-05
1.17457e-05
1.08339e-05
9.98953e-06
9.20778e-06
8.4843e-06
7.81497e-06
7.19596e-06
6.6237e-06
6.09483e-06
5.60623e-06
5.15501e-06
4.73845e-06
4.35403e-06
3.99939e-06
3.67235e-06
3.37086e-06
3.09303e-06
2.83709e-06
2.60141e-06
2.38446e-06
2.18482e-06
2.00119e-06
1.83233e-06
1.67712e-06
1.5345e-06
1.40351e-06
1.28324e-06
1.17285e-06
1.07157e-06
9.78675e-07
8.93512e-07
8.15463e-07
7.43961e-07
6.7848e-07
6.18536e-07
5.63682e-07
5.13504e-07
4.67621e-07
4.2568e-07
3.87359e-07
3.52357e-07
3.20399e-07
2.91232e-07
2.64622e-07
2.40354e-07
2.1823e-07
1.98069e-07
1.79703e-07
1.62979e-07
1.47757e-07
1.33906e-07
1.21307e-07
1.09853e-07
9.94432e-08
8.99857e-08
8.13969e-08
7.36001e-08
6.6525e-08
6.01072e-08
5.4288e-08
4.90136e-08
4.42348e-08
3.99067e-08
3.59884e-08
3.24425e-08
2.92347e-08
2.63341e-08
2.37122e-08
2.13432e-08
1.92035e-08
1.72717e-08
1.55282e-08
1.39554e-08
1.25371e-08
1.12585e-08
1.01065e-08
9.06886e-09
8.1346e-09
7.29377e-09
6.53732e-09
5.85706e-09
5.24555e-09
4.69607e-09
4.20251e-09
3.75937e-09
3.36165e-09
3.00484e-09
2.68485e-09
2.39801e-09
2.14097e-09
1.91075e-09
1.70461e-09
1.52012e-09
1.35507e-09
1.20746e-09
1.07552e-09
9.57613e-10
8.52301e-10
7.58273e-10
6.74354e-10
5.99487e-10
5.32723e-10
4.73208e-10
4.20177e-10
3.72942e-10
3.30887e-10
2.93459e-10
2.60162e-10
2.30552e-10
2.04232e-10
1.80845e-10
1.60073e-10
1.41631e-10
1.25264e-10
1.10745e-10
9.78696e-11
8.64572e-11
7.63454e-11
6.73896e-11
5.94608e-11
5.24441e-11
4.62371e-11
4.07485e-11
3.58973e-11
3.1611e-11
2.78255e-11
2.44837e-11
2.15346e-11
1.89332e-11
1.66395e-11
1.46178e-11
1.28367e-11
1.12681e-11
9.88725e-12
8.67217e-12
7.60339e-12
6.66368e-12
5.83779e-12
5.11222e-12
4.47505e-12
3.91573e-12
3.42496e-12
2.9945e-12
2.61711e-12
2.28636e-12
1.99662e-12
1.7429e-12
1.52081e-12
1.3265e-12
1.15655e-12
1.00797e-12
8.78134e-13
7.64714e-13
6.65678e-13
5.79237e-13
5.0382e-13
4.38047e-13
3.8071e-13
3.30746e-13
2.87225e-13
2.49332e-13
2.16352e-13
1.87661e-13
1.62712e-13
1.41025e-13
1.22182e-13
1.05818e-13
9.16137e-14
7.92897e-14
6.86034e-14
5.93429e-14
5.1324e-14
4.43864e-14
3.83911e-14
3.3218e-14
2.87633e-14
2.49382e-14
2.1667e-14
1.88858e-14
1.65416e-14
1.45917e-14
1.30024e-14
1.1749e-14
1.08153e-14
1.01928e-14
9.87983e-15
)
;
    }
    Wall
    {
        type            calculated;
        value           nonuniform List<scalar> 
400
(
0.615464
0.595816
0.580239
0.565749
0.551899
0.538636
0.525849
0.513442
0.501348
0.489516
0.477912
0.466508
0.455282
0.444219
0.433309
0.422543
0.411916
0.401427
0.391074
0.380856
0.370776
0.360835
0.351036
0.341381
0.331873
0.322515
0.313309
0.304259
0.295367
0.286635
0.278065
0.269659
0.261418
0.253345
0.245439
0.237702
0.230135
0.222736
0.215507
0.208447
0.201555
0.194831
0.188274
0.181883
0.175657
0.169593
0.163692
0.157949
0.152365
0.146936
0.141661
0.136537
0.131562
0.126734
0.12205
0.117507
0.113103
0.108836
0.104702
0.100699
0.0968234
0.0930734
0.0894458
0.0859379
0.0825467
0.0792695
0.0761034
0.0730458
0.0700937
0.0672445
0.0644954
0.0618436
0.0592866
0.0568217
0.0544461
0.0521575
0.0499532
0.0478308
0.0457877
0.0438216
0.04193
0.0401107
0.0383615
0.0366799
0.0350639
0.0335114
0.0320202
0.0305882
0.0292136
0.0278943
0.0266284
0.0254142
0.0242497
0.0231333
0.0220632
0.0210378
0.0200555
0.0191146
0.0182137
0.0173512
0.0165258
0.0157361
0.0149806
0.0142582
0.0135674
0.0129072
0.0122762
0.0116734
0.0110976
0.0105478
0.0100229
0.00952185
0.00904378
0.0085877
0.00815272
0.00773795
0.00734256
0.00696572
0.00660667
0.00626464
0.0059389
0.00562876
0.00533355
0.0050526
0.0047853
0.00453105
0.00428927
0.00405941
0.00384093
0.00363331
0.00343608
0.00324876
0.00307088
0.00290203
0.00274178
0.00258972
0.00244549
0.00230871
0.00217903
0.00205611
0.00193962
0.00182927
0.00172475
0.00162579
0.0015321
0.00144344
0.00135955
0.0012802
0.00120517
0.00113423
0.00106718
0.00100383
0.000943983
0.000887466
0.000834106
0.000783741
0.000736216
0.000691382
0.0006491
0.000609234
0.000571658
0.000536249
0.000502893
0.000471478
0.0004419
0.00041406
0.000387863
0.000363219
0.000340043
0.000318254
0.000297774
0.00027853
0.000260454
0.000243479
0.000227544
0.000212588
0.000198556
0.000185394
0.000173053
0.000161485
0.000150644
0.000140488
0.000130977
0.000122073
0.000113739
0.000105941
9.86466e-05
9.18263e-05
8.54508e-05
7.9493e-05
7.39273e-05
6.87296e-05
6.38771e-05
5.93483e-05
5.5123e-05
5.11821e-05
4.75077e-05
4.40828e-05
4.08916e-05
3.79191e-05
3.51513e-05
3.25748e-05
3.01773e-05
2.7947e-05
2.5873e-05
2.39451e-05
2.21534e-05
2.0489e-05
1.89433e-05
1.75083e-05
1.61766e-05
1.49412e-05
1.37954e-05
1.27332e-05
1.17488e-05
1.08368e-05
9.99224e-06
9.2103e-06
8.48664e-06
7.81715e-06
7.19799e-06
6.62558e-06
6.09658e-06
5.60786e-06
5.15652e-06
4.73985e-06
4.35533e-06
4.0006e-06
3.67346e-06
3.37189e-06
3.09399e-06
2.83798e-06
2.60223e-06
2.38522e-06
2.18553e-06
2.00184e-06
1.83293e-06
1.67767e-06
1.53502e-06
1.40398e-06
1.28367e-06
1.17325e-06
1.07194e-06
9.79018e-07
8.93829e-07
8.15755e-07
7.44229e-07
6.78727e-07
6.18764e-07
5.63891e-07
5.13696e-07
4.67797e-07
4.25843e-07
3.87508e-07
3.52494e-07
3.20525e-07
2.91347e-07
2.64728e-07
2.40451e-07
2.18319e-07
1.9815e-07
1.79777e-07
1.63047e-07
1.47819e-07
1.33963e-07
1.2136e-07
1.09901e-07
9.94867e-08
9.00254e-08
8.14332e-08
7.36332e-08
6.65552e-08
6.01348e-08
5.43131e-08
4.90364e-08
4.42556e-08
3.99257e-08
3.60057e-08
3.24582e-08
2.9249e-08
2.63471e-08
2.3724e-08
2.13539e-08
1.92132e-08
1.72805e-08
1.55362e-08
1.39626e-08
1.25436e-08
1.12645e-08
1.01119e-08
9.07373e-09
8.13901e-09
7.29776e-09
6.54093e-09
5.86032e-09
5.2485e-09
4.69873e-09
4.20491e-09
3.76154e-09
3.3636e-09
3.0066e-09
2.68644e-09
2.39944e-09
2.14226e-09
1.91191e-09
1.70565e-09
1.52106e-09
1.35591e-09
1.20822e-09
1.0762e-09
9.58224e-10
8.5285e-10
7.58765e-10
6.74796e-10
5.99883e-10
5.33078e-10
4.73526e-10
4.20462e-10
3.73197e-10
3.31115e-10
2.93663e-10
2.60344e-10
2.30715e-10
2.04377e-10
1.80975e-10
1.60189e-10
1.41734e-10
1.25356e-10
1.10827e-10
9.79428e-11
8.65224e-11
7.64034e-11
6.74412e-11
5.95067e-11
5.24849e-11
4.62733e-11
4.07807e-11
3.59259e-11
3.16364e-11
2.78481e-11
2.45036e-11
2.15523e-11
1.89489e-11
1.66534e-11
1.46301e-11
1.28476e-11
1.12777e-11
9.89578e-12
8.67971e-12
7.61006e-12
6.66957e-12
5.84298e-12
5.1168e-12
4.47909e-12
3.9193e-12
3.4281e-12
2.99727e-12
2.61954e-12
2.28851e-12
1.99851e-12
1.74456e-12
1.52227e-12
1.32778e-12
1.15768e-12
1.00896e-12
8.79004e-13
7.65477e-13
6.66348e-13
5.79824e-13
5.04334e-13
4.38498e-13
3.81104e-13
3.31091e-13
2.87527e-13
2.49596e-13
2.16583e-13
1.87863e-13
1.62888e-13
1.41179e-13
1.22316e-13
1.05935e-13
9.17158e-14
7.93788e-14
6.8681e-14
5.94105e-14
5.13829e-14
4.44376e-14
3.84358e-14
3.32569e-14
2.87973e-14
2.49678e-14
2.16928e-14
1.89084e-14
1.65616e-14
1.46094e-14
1.30182e-14
1.17634e-14
1.08281e-14
1.02036e-14
9.88971e-15
)
;
    }
}


// ************************************************************************* //
