/*--------------------------------*- C++ -*----------------------------------*\
  =========                 |
  \\      /  F ield         | OpenFOAM: The Open Source CFD Toolbox
   \\    /   O peration     | Website:  https://openfoam.org
    \\  /    A nd           | Version:  dev
     \\/     M anipulation  |
\*---------------------------------------------------------------------------*/
FoamFile
{
    format      ascii;
    class       volScalarField;
    location    "0.1";
    object      Exp1;
}
// * * * * * * * * * * * * * * * * * * * * * * * * * * * * * * * * * * * * * //

dimensions      [0 0 0 0 0 0 0];

internalField   uniform 0;

boundaryField
{
    frontAndBack
    {
        type            empty;
    }
    inlet
    {
        type            calculated;
        value           uniform 0;
    }
    outlet
    {
        type            calculated;
        value           uniform 0;
    }
    substrate
    {
        type            calculated;
        value           nonuniform List<scalar> 
400
(
0.129584
0.125336
0.122313
0.11953
0.116872
0.114343
0.111916
0.10957
0.107288
0.105059
0.102876
0.100732
0.0986221
0.0965436
0.0944937
0.0924708
0.0904736
0.0885014
0.0865537
0.0846304
0.0827315
0.080857
0.0790071
0.0771823
0.0753827
0.0736087
0.0718605
0.0701386
0.0684431
0.0667743
0.0651324
0.0635175
0.06193
0.0603697
0.0588369
0.0573315
0.0558536
0.0544031
0.05298
0.0515842
0.0502155
0.0488739
0.0475591
0.046271
0.0450094
0.043774
0.0425647
0.0413811
0.0402229
0.03909
0.037982
0.0368986
0.0358395
0.0348044
0.0337928
0.0328047
0.0318394
0.0308968
0.0299765
0.0290781
0.0282013
0.0273458
0.0265111
0.025697
0.0249031
0.024129
0.0233743
0.0226389
0.0219222
0.0212239
0.0205438
0.0198815
0.0192365
0.0186087
0.0179977
0.0174031
0.0168246
0.0162619
0.0157147
0.0151827
0.0146656
0.0141629
0.0136746
0.0132001
0.0127394
0.012292
0.0118576
0.0114361
0.011027
0.0106301
0.0102452
0.00987203
0.00951021
0.00915953
0.00881974
0.00849057
0.00817177
0.00786308
0.00756427
0.00727508
0.00699529
0.00672464
0.00646292
0.00620989
0.00596532
0.00572899
0.00550069
0.0052802
0.0050673
0.0048618
0.00466348
0.00447215
0.00428761
0.00410966
0.00393812
0.00377279
0.00361351
0.00346008
0.00331233
0.00317009
0.00303319
0.00290147
0.00277476
0.00265291
0.00253577
0.00242318
0.00231499
0.00221106
0.00211125
0.00201543
0.00192346
0.0018352
0.00175054
0.00166935
0.0015915
0.00151688
0.00144538
0.00137689
0.00131129
0.00124848
0.00118837
0.00113084
0.00107581
0.00102318
0.00097286
0.000924761
0.000878801
0.000834895
0.000792963
0.000752929
0.000714717
0.000678255
0.000643472
0.000610301
0.000578677
0.000548535
0.000519815
0.000492457
0.000466405
0.000441604
0.000418
0.000395542
0.000374181
0.00035387
0.000334562
0.000316214
0.000298782
0.000282228
0.00026651
0.000251591
0.000237436
0.000224009
0.000211276
0.000199206
0.000187767
0.00017693
0.000166666
0.000156949
0.000147752
0.00013905
0.000130819
0.000123035
0.000115678
0.000108726
0.000102159
9.59573e-05
9.01028e-05
8.45778e-05
7.93656e-05
7.445e-05
6.98158e-05
6.54484e-05
6.13337e-05
5.74585e-05
5.381e-05
5.03763e-05
4.71457e-05
4.41073e-05
4.12506e-05
3.85658e-05
3.60434e-05
3.36743e-05
3.14501e-05
2.93626e-05
2.74041e-05
2.55674e-05
2.38454e-05
2.22316e-05
2.07196e-05
1.93037e-05
1.79782e-05
1.67377e-05
1.55773e-05
1.44921e-05
1.34777e-05
1.25298e-05
1.16444e-05
1.08176e-05
1.00459e-05
9.32583e-06
8.65422e-06
8.02805e-06
7.44445e-06
6.90074e-06
6.39439e-06
5.923e-06
5.48434e-06
5.07627e-06
4.69683e-06
4.34412e-06
4.01641e-06
3.71202e-06
3.42942e-06
3.16714e-06
2.92382e-06
2.69818e-06
2.489e-06
2.29517e-06
2.11564e-06
1.9494e-06
1.79555e-06
1.6532e-06
1.52156e-06
1.39986e-06
1.2874e-06
1.18353e-06
1.08761e-06
9.99081e-07
9.17405e-07
8.42079e-07
7.72639e-07
7.0865e-07
6.49707e-07
5.95436e-07
5.45485e-07
4.99529e-07
4.57266e-07
4.18415e-07
3.82714e-07
3.49922e-07
3.19815e-07
2.92182e-07
2.66832e-07
2.43585e-07
2.22276e-07
2.0275e-07
1.84867e-07
1.68494e-07
1.5351e-07
1.39803e-07
1.2727e-07
1.15813e-07
1.05346e-07
9.57873e-08
8.70607e-08
7.90976e-08
7.1834e-08
6.52113e-08
5.91755e-08
5.36767e-08
4.86694e-08
4.41115e-08
3.99643e-08
3.61924e-08
3.27633e-08
2.96472e-08
2.68166e-08
2.42464e-08
2.19138e-08
1.97975e-08
1.78784e-08
1.61387e-08
1.45624e-08
1.31348e-08
1.18423e-08
1.06726e-08
9.61461e-09
8.65795e-09
7.7933e-09
7.01214e-09
6.30671e-09
5.66994e-09
5.09538e-09
4.57717e-09
4.10999e-09
3.68899e-09
3.30976e-09
2.96829e-09
2.66097e-09
2.38449e-09
2.13586e-09
1.91238e-09
1.71157e-09
1.53122e-09
1.36932e-09
1.22403e-09
1.09371e-09
9.76858e-10
8.72135e-10
7.78319e-10
6.94309e-10
6.19113e-10
5.51833e-10
4.91663e-10
4.37873e-10
3.89807e-10
3.46875e-10
3.08544e-10
2.74336e-10
2.4382e-10
2.16609e-10
1.92356e-10
1.70747e-10
1.51504e-10
1.34374e-10
1.19131e-10
1.05574e-10
9.35217e-11
8.28107e-11
7.32961e-11
6.48479e-11
5.73498e-11
5.06978e-11
4.47988e-11
3.95698e-11
3.49367e-11
3.08334e-11
2.72007e-11
2.39861e-11
2.11427e-11
1.86287e-11
1.64068e-11
1.44439e-11
1.27106e-11
1.11807e-11
9.8309e-12
8.64046e-12
7.59104e-12
6.66632e-12
5.85182e-12
5.13472e-12
4.50363e-12
3.94847e-12
3.46031e-12
3.03126e-12
2.6543e-12
2.32327e-12
2.03268e-12
1.7777e-12
1.55406e-12
1.358e-12
1.18618e-12
1.03568e-12
9.03897e-13
7.88562e-13
6.87662e-13
5.9943e-13
5.22308e-13
4.54929e-13
3.96087e-13
3.44726e-13
2.99917e-13
2.60845e-13
2.26796e-13
1.97143e-13
1.71341e-13
1.48909e-13
1.29433e-13
1.12548e-13
9.7943e-14
8.53468e-14
7.45293e-14
6.52958e-14
5.74848e-14
5.09656e-14
4.56366e-14
4.14236e-14
3.82788e-14
3.6179e-14
3.51224e-14
)
;
    }
    Wall
    {
        type            calculated;
        value           nonuniform List<scalar> 
400
(
0.129584
0.125336
0.122313
0.11953
0.116873
0.114343
0.111916
0.10957
0.107288
0.105059
0.102876
0.100732
0.0986222
0.0965437
0.094494
0.0924711
0.090474
0.0885018
0.0865542
0.084631
0.082732
0.0808576
0.0790078
0.077183
0.0753834
0.0736094
0.0718613
0.0701394
0.0684439
0.0667751
0.0651332
0.0635184
0.0619308
0.0603706
0.0588378
0.0573324
0.0558545
0.054404
0.0529809
0.051585
0.0502163
0.0488747
0.0475599
0.0462718
0.0450102
0.0437748
0.0425654
0.0413818
0.0402237
0.0390908
0.0379828
0.0368993
0.0358402
0.0348051
0.0337935
0.0328053
0.0318401
0.0308975
0.0299772
0.0290788
0.028202
0.0273464
0.0265118
0.0256976
0.0249037
0.0241296
0.0233749
0.0226394
0.0219228
0.0212245
0.0205444
0.019882
0.0192371
0.0186093
0.0179982
0.0174036
0.0168251
0.0162624
0.0157152
0.0151832
0.014666
0.0141634
0.013675
0.0132006
0.0127398
0.0122924
0.011858
0.0114365
0.0110274
0.0106306
0.0102456
0.00987241
0.00951059
0.00915991
0.0088201
0.00849092
0.00817211
0.00786342
0.0075646
0.00727541
0.0069956
0.00672495
0.00646322
0.00621018
0.00596561
0.00572927
0.00550097
0.00528047
0.00506757
0.00486206
0.00466373
0.0044724
0.00428785
0.00410989
0.00393834
0.00377301
0.00361372
0.00346028
0.00331253
0.00317028
0.00303338
0.00290165
0.00277494
0.00265309
0.00253594
0.00242334
0.00231515
0.00221122
0.0021114
0.00201558
0.0019236
0.00183534
0.00175067
0.00166947
0.00159162
0.001517
0.0014455
0.001377
0.0013114
0.00124859
0.00118847
0.00113094
0.0010759
0.00102327
0.000972946
0.000924845
0.000878881
0.000834972
0.000793037
0.000753
0.000714785
0.000678321
0.000643535
0.000610362
0.000578735
0.000548591
0.000519868
0.000492509
0.000466455
0.000441651
0.000418045
0.000395585
0.000374223
0.000353909
0.0003346
0.00031625
0.000298817
0.000282261
0.000266542
0.000251622
0.000237465
0.000224036
0.000211302
0.000199231
0.000187791
0.000176953
0.000166688
0.00015697
0.000147772
0.000139069
0.000130837
0.000123053
0.000115695
0.000108742
0.000102174
9.59714e-05
9.01162e-05
8.45905e-05
7.93776e-05
7.44615e-05
6.98267e-05
6.54587e-05
6.13435e-05
5.74677e-05
5.38188e-05
5.03846e-05
4.71535e-05
4.41147e-05
4.12577e-05
3.85725e-05
3.60497e-05
3.36803e-05
3.14557e-05
2.93679e-05
2.74092e-05
2.55721e-05
2.38499e-05
2.22358e-05
2.07236e-05
1.93075e-05
1.79817e-05
1.67411e-05
1.55804e-05
1.44951e-05
1.34805e-05
1.25324e-05
1.16468e-05
1.08199e-05
1.00481e-05
9.32786e-06
8.65613e-06
8.02984e-06
7.44613e-06
6.90232e-06
6.39586e-06
5.92438e-06
5.48563e-06
5.07748e-06
4.69796e-06
4.34518e-06
4.0174e-06
3.71295e-06
3.43029e-06
3.16795e-06
2.92458e-06
2.69888e-06
2.48966e-06
2.29579e-06
2.11621e-06
1.94993e-06
1.79604e-06
1.65366e-06
1.52199e-06
1.40026e-06
1.28777e-06
1.18387e-06
1.08793e-06
9.99378e-07
9.1768e-07
8.42335e-07
7.72876e-07
7.08869e-07
6.49911e-07
5.95624e-07
5.45659e-07
4.9969e-07
4.57415e-07
4.18553e-07
3.82842e-07
3.5004e-07
3.19924e-07
2.92283e-07
2.66925e-07
2.43671e-07
2.22355e-07
2.02823e-07
1.84934e-07
1.68556e-07
1.53567e-07
1.39855e-07
1.27318e-07
1.15858e-07
1.05387e-07
9.58246e-08
8.7095e-08
7.9129e-08
7.18628e-08
6.52377e-08
5.91997e-08
5.36989e-08
4.86897e-08
4.413e-08
3.99813e-08
3.6208e-08
3.27775e-08
2.96602e-08
2.68284e-08
2.42573e-08
2.19236e-08
1.98065e-08
1.78866e-08
1.61462e-08
1.45693e-08
1.3141e-08
1.1848e-08
1.06778e-08
9.6193e-09
8.66221e-09
7.79717e-09
7.01566e-09
6.30991e-09
5.67284e-09
5.09801e-09
4.57956e-09
4.11215e-09
3.69095e-09
3.31153e-09
2.9699e-09
2.66242e-09
2.38581e-09
2.13705e-09
1.91345e-09
1.71254e-09
1.5321e-09
1.37011e-09
1.22474e-09
1.09435e-09
9.77437e-10
8.72657e-10
7.78789e-10
6.94732e-10
6.19493e-10
5.52176e-10
4.91971e-10
4.3815e-10
3.90056e-10
3.47098e-10
3.08744e-10
2.74515e-10
2.43981e-10
2.16753e-10
1.92485e-10
1.70863e-10
1.51608e-10
1.34467e-10
1.19214e-10
1.05649e-10
9.35879e-11
8.28698e-11
7.33489e-11
6.4895e-11
5.73919e-11
5.07352e-11
4.48321e-11
3.95995e-11
3.49632e-11
3.08569e-11
2.72217e-11
2.40048e-11
2.11593e-11
1.86434e-11
1.64198e-11
1.44555e-11
1.27209e-11
1.11899e-11
9.839e-12
8.64764e-12
7.59739e-12
6.67194e-12
5.8568e-12
5.13912e-12
4.50752e-12
3.95191e-12
3.46336e-12
3.03394e-12
2.65668e-12
2.32536e-12
2.03452e-12
1.77932e-12
1.55549e-12
1.35926e-12
1.18729e-12
1.03666e-12
9.04758e-13
7.89319e-13
6.88328e-13
6.00015e-13
5.22822e-13
4.55379e-13
3.96482e-13
3.45073e-13
3.00221e-13
2.61111e-13
2.27029e-13
1.97348e-13
1.7152e-13
1.49066e-13
1.2957e-13
1.12669e-13
9.80484e-14
8.54392e-14
7.46105e-14
6.53673e-14
5.75481e-14
5.10222e-14
4.56875e-14
4.14698e-14
3.83202e-14
3.6214e-14
3.51544e-14
)
;
    }
}


// ************************************************************************* //
