/*--------------------------------*- C++ -*----------------------------------*\
  =========                 |
  \\      /  F ield         | OpenFOAM: The Open Source CFD Toolbox
   \\    /   O peration     | Website:  https://openfoam.org
    \\  /    A nd           | Version:  dev
     \\/     M anipulation  |
\*---------------------------------------------------------------------------*/
FoamFile
{
    format      ascii;
    class       volScalarField;
    location    "0.1";
    object      N1;
}
// * * * * * * * * * * * * * * * * * * * * * * * * * * * * * * * * * * * * * //

dimensions      [0 0 0 0 0 0 0];

internalField   nonuniform List<scalar> 
8000
(
0.985775
0.953792
0.931048
0.9101
0.890085
0.871024
0.852735
0.835042
0.817828
0.801009
0.784525
0.76833
0.752389
0.736677
0.721176
0.705872
0.690758
0.675826
0.661075
0.646503
0.63211
0.617897
0.603866
0.59002
0.57636
0.56289
0.549612
0.536528
0.523641
0.510952
0.498464
0.486179
0.474096
0.462218
0.450546
0.439078
0.427817
0.416762
0.405912
0.395267
0.384826
0.374589
0.364555
0.354721
0.345088
0.335652
0.326413
0.317369
0.308517
0.299856
0.291384
0.283098
0.274997
0.267077
0.259336
0.251773
0.244384
0.237167
0.230119
0.223238
0.216522
0.209967
0.203572
0.197332
0.191247
0.185313
0.179527
0.173888
0.168392
0.163037
0.15782
0.152739
0.147791
0.142974
0.138285
0.133722
0.129282
0.124963
0.120762
0.116678
0.112707
0.108848
0.105098
0.101455
0.0979161
0.0944798
0.0911437
0.0879055
0.0847632
0.0817147
0.0787577
0.0758903
0.0731103
0.0704159
0.0678049
0.0652755
0.0628256
0.0604534
0.058157
0.0559345
0.053784
0.0517039
0.0496922
0.0477473
0.0458674
0.0440508
0.0422958
0.0406009
0.0389643
0.0373844
0.0358598
0.0343889
0.0329701
0.031602
0.0302831
0.029012
0.0277873
0.0266077
0.0254716
0.024378
0.0233254
0.0223125
0.0213383
0.0204013
0.0195006
0.0186348
0.0178029
0.0170037
0.0162362
0.0154994
0.0147921
0.0141135
0.0134624
0.012838
0.0122394
0.0116656
0.0111158
0.010589
0.0100846
0.00960156
0.00913925
0.00869686
0.00827365
0.0078689
0.00748191
0.00711202
0.00675856
0.0064209
0.00609843
0.00579055
0.00549668
0.00521626
0.00494876
0.00469366
0.00445045
0.00421864
0.00399776
0.00378737
0.00358701
0.00339627
0.00321474
0.00304202
0.00287774
0.00272153
0.00257304
0.00243193
0.00229787
0.00217056
0.00204968
0.00193494
0.00182607
0.00172281
0.00162488
0.00153205
0.00144408
0.00136074
0.0012818
0.00120707
0.00113633
0.00106941
0.0010061
0.000946245
0.000889663
0.000836196
0.000785688
0.000737992
0.000692966
0.000650474
0.000610388
0.000572583
0.000536942
0.000503353
0.000471708
0.000441904
0.000413844
0.000387436
0.00036259
0.000339222
0.000317252
0.000296604
0.000277204
0.000258984
0.000241878
0.000225823
0.000210761
0.000196635
0.000183391
0.000170979
0.000159352
0.000148462
0.000138268
0.000128727
0.000119803
0.000111457
0.000103655
9.6365e-05
8.95552e-05
8.31966e-05
7.72614e-05
7.17235e-05
6.65583e-05
6.17425e-05
5.72541e-05
5.30726e-05
4.91783e-05
4.55529e-05
4.21792e-05
3.90408e-05
3.61226e-05
3.341e-05
3.08896e-05
2.85486e-05
2.63752e-05
2.4358e-05
2.24867e-05
2.07513e-05
1.91425e-05
1.76518e-05
1.6271e-05
1.49926e-05
1.38093e-05
1.27145e-05
1.17021e-05
1.07661e-05
9.90122e-06
9.10231e-06
8.36464e-06
7.68378e-06
7.05562e-06
6.4763e-06
5.94225e-06
5.45012e-06
4.9968e-06
4.57941e-06
4.19524e-06
3.8418e-06
3.51676e-06
3.21796e-06
2.9434e-06
2.6912e-06
2.45965e-06
2.24713e-06
2.05217e-06
1.87338e-06
1.70949e-06
1.55932e-06
1.42178e-06
1.29586e-06
1.18062e-06
1.07521e-06
9.78811e-07
8.90703e-07
8.10204e-07
7.36686e-07
6.69571e-07
6.08327e-07
5.52464e-07
5.0153e-07
4.5511e-07
4.1282e-07
3.74309e-07
3.39254e-07
3.07359e-07
2.7835e-07
2.51978e-07
2.28012e-07
2.06242e-07
1.86476e-07
1.68535e-07
1.5226e-07
1.375e-07
1.2412e-07
1.11998e-07
1.01018e-07
9.10773e-08
8.20817e-08
7.39445e-08
6.6587e-08
5.99371e-08
5.39293e-08
4.8504e-08
4.36066e-08
3.91878e-08
3.52024e-08
3.16093e-08
2.83714e-08
2.54548e-08
2.28287e-08
2.04651e-08
1.83388e-08
1.64266e-08
1.47078e-08
1.31634e-08
1.17764e-08
1.05312e-08
9.41382e-09
8.41153e-09
7.51287e-09
6.70746e-09
5.98593e-09
5.33983e-09
4.7615e-09
4.24407e-09
3.7813e-09
3.36761e-09
2.99795e-09
2.66776e-09
2.37297e-09
2.10988e-09
1.87518e-09
1.66591e-09
1.47938e-09
1.31319e-09
1.16519e-09
1.03345e-09
9.16222e-10
8.11957e-10
7.19261e-10
6.36884e-10
5.63709e-10
4.98736e-10
4.41069e-10
3.89909e-10
3.4454e-10
3.04325e-10
2.68693e-10
2.37135e-10
2.09197e-10
1.84474e-10
1.62605e-10
1.4327e-10
1.26182e-10
1.11086e-10
9.77556e-11
8.59893e-11
7.5608e-11
6.64525e-11
5.83815e-11
5.12696e-11
4.50055e-11
3.94903e-11
3.46367e-11
3.03671e-11
2.66128e-11
2.33129e-11
2.04139e-11
1.78679e-11
1.5633e-11
1.3672e-11
1.1952e-11
1.04442e-11
9.12274e-12
7.96523e-12
6.95173e-12
6.06471e-12
5.28871e-12
4.61012e-12
4.01699e-12
3.49879e-12
3.04624e-12
2.65123e-12
2.30662e-12
2.00612e-12
1.74425e-12
1.5162e-12
1.31776e-12
1.14524e-12
9.95446e-13
8.65592e-13
7.53265e-13
6.56389e-13
5.73193e-13
5.0218e-13
4.42107e-13
3.91969e-13
3.50984e-13
3.18582e-13
2.94396e-13
2.78247e-13
2.70121e-13
0.987357
0.962618
0.941919
0.922206
0.90301
0.88444
0.866457
0.848971
0.831905
0.815192
0.798783
0.782637
0.766724
0.75102
0.735509
0.72018
0.705025
0.69004
0.675223
0.660573
0.646091
0.63178
0.617641
0.603677
0.589893
0.576289
0.562871
0.54964
0.536599
0.523751
0.511099
0.498644
0.486387
0.474331
0.462475
0.450823
0.439373
0.428126
0.417082
0.406242
0.395604
0.385169
0.374935
0.364901
0.355066
0.34543
0.335989
0.326744
0.317692
0.308832
0.300161
0.291677
0.283379
0.275264
0.26733
0.259575
0.251996
0.244591
0.237358
0.230294
0.223396
0.216663
0.21009
0.203677
0.197421
0.191318
0.185367
0.179564
0.173908
0.168396
0.163024
0.157792
0.152695
0.147732
0.142901
0.138198
0.133621
0.129168
0.124837
0.120624
0.116528
0.112547
0.108678
0.104918
0.101265
0.0977184
0.0942742
0.0909307
0.0876858
0.0845373
0.0814831
0.0785211
0.0756491
0.0728651
0.0701671
0.0675531
0.0650211
0.0625692
0.0601953
0.0578977
0.0556744
0.0535236
0.0514435
0.0494322
0.047488
0.0456091
0.0437939
0.0420406
0.0403475
0.0387131
0.0371357
0.0356138
0.0341457
0.03273
0.0313652
0.0300497
0.0287822
0.0275612
0.0263854
0.0252533
0.0241637
0.0231152
0.0221066
0.0211366
0.020204
0.0193076
0.0184462
0.0176187
0.0168239
0.0160609
0.0153284
0.0146256
0.0139513
0.0133046
0.0126846
0.0120903
0.0115207
0.0109751
0.0104525
0.00995218
0.00947325
0.00901493
0.00857648
0.00815713
0.00775618
0.00737293
0.00700669
0.00665681
0.00632266
0.00600361
0.00569908
0.00540848
0.00513127
0.00486688
0.00461482
0.00437456
0.00414564
0.00392756
0.00371989
0.00352217
0.003334
0.00315496
0.00298466
0.00282273
0.00266879
0.00252249
0.00238351
0.00225151
0.00212617
0.00200721
0.00189433
0.00178725
0.00168571
0.00158945
0.00149822
0.00141179
0.00132993
0.00125243
0.00117907
0.00110966
0.001044
0.000981916
0.000923227
0.000867768
0.000815376
0.0007659
0.000719192
0.000675112
0.000633526
0.000594305
0.000557329
0.000522479
0.000489646
0.000458723
0.000429608
0.000402205
0.000376424
0.000352175
0.000329376
0.000307948
0.000287815
0.000268905
0.000251152
0.000234489
0.000218855
0.000204193
0.000190446
0.000177562
0.000165492
0.000154188
0.000143604
0.0001337
0.000124435
0.00011577
0.00010767
0.0001001
9.30296e-05
8.6427e-05
8.02639e-05
7.45132e-05
6.91493e-05
6.41481e-05
5.94868e-05
5.5144e-05
5.10994e-05
4.73339e-05
4.38297e-05
4.05699e-05
3.75386e-05
3.47208e-05
3.21026e-05
2.96707e-05
2.74127e-05
2.5317e-05
2.33728e-05
2.15697e-05
1.98982e-05
1.83493e-05
1.69145e-05
1.5586e-05
1.43563e-05
1.32187e-05
1.21665e-05
1.11938e-05
1.02949e-05
9.46452e-06
8.69779e-06
7.99009e-06
7.33714e-06
6.73494e-06
6.17977e-06
5.66816e-06
5.19689e-06
4.76294e-06
4.36353e-06
3.99605e-06
3.65809e-06
3.3474e-06
3.06189e-06
2.79964e-06
2.55885e-06
2.33784e-06
2.13508e-06
1.94914e-06
1.77868e-06
1.6225e-06
1.47944e-06
1.34846e-06
1.22858e-06
1.11892e-06
1.01865e-06
9.26985e-07
8.43237e-07
7.66748e-07
6.96919e-07
6.33197e-07
5.75071e-07
5.22071e-07
4.73766e-07
4.29758e-07
3.89681e-07
3.53199e-07
3.20004e-07
2.89813e-07
2.62363e-07
2.37418e-07
2.14758e-07
1.94183e-07
1.75507e-07
1.58564e-07
1.43198e-07
1.29269e-07
1.16647e-07
1.05215e-07
9.48654e-08
8.54988e-08
7.70256e-08
6.9364e-08
6.2439e-08
5.61825e-08
5.05323e-08
4.54319e-08
4.08296e-08
3.66785e-08
3.2936e-08
2.95633e-08
2.65251e-08
2.37894e-08
2.13272e-08
1.91119e-08
1.71198e-08
1.5329e-08
1.37199e-08
1.22747e-08
1.09772e-08
9.81287e-09
8.76842e-09
7.83191e-09
6.99256e-09
6.2406e-09
5.56721e-09
4.96444e-09
4.42511e-09
3.94275e-09
3.51153e-09
3.12618e-09
2.78198e-09
2.47465e-09
2.20037e-09
1.95568e-09
1.73748e-09
1.543e-09
1.36972e-09
1.21539e-09
1.07801e-09
9.55765e-10
8.47032e-10
7.50359e-10
6.64445e-10
5.88125e-10
5.20357e-10
4.60207e-10
4.06842e-10
3.59517e-10
3.17565e-10
2.80393e-10
2.4747e-10
2.18322e-10
1.92528e-10
1.69711e-10
1.49537e-10
1.31706e-10
1.15953e-10
1.02043e-10
8.97637e-11
7.89297e-11
6.93745e-11
6.09509e-11
5.3528e-11
4.69897e-11
4.12329e-11
3.61665e-11
3.17095e-11
2.77902e-11
2.43453e-11
2.13186e-11
1.86605e-11
1.63271e-11
1.42796e-11
1.24836e-11
1.09091e-11
9.5292e-12
8.32043e-12
7.26201e-12
6.33562e-12
5.52516e-12
4.81642e-12
4.1969e-12
3.65561e-12
3.1829e-12
2.77026e-12
2.41025e-12
2.09631e-12
1.82272e-12
1.58444e-12
1.37708e-12
1.1968e-12
1.04025e-12
9.04512e-13
7.87076e-13
6.85768e-13
5.98734e-13
5.24408e-13
4.6149e-13
4.08927e-13
3.65903e-13
3.31822e-13
3.06312e-13
2.89208e-13
2.80561e-13
0.990437
0.970058
0.950863
0.932264
0.914047
0.89622
0.878782
0.8617
0.844932
0.828441
0.812194
0.796164
0.780328
0.764671
0.749181
0.73385
0.718673
0.70365
0.688779
0.674062
0.659501
0.645099
0.630859
0.616786
0.602883
0.589154
0.575602
0.562231
0.549044
0.536044
0.523234
0.510617
0.498194
0.485967
0.473938
0.462108
0.450478
0.439049
0.42782
0.416793
0.405967
0.395342
0.384917
0.374692
0.364666
0.354837
0.345205
0.335768
0.326525
0.317474
0.308613
0.299941
0.291456
0.283154
0.275036
0.267098
0.259337
0.251753
0.244342
0.237103
0.230032
0.223127
0.216387
0.209808
0.203387
0.197124
0.191014
0.185055
0.179246
0.173583
0.168063
0.162686
0.157447
0.152344
0.147376
0.142539
0.137831
0.133249
0.128792
0.124457
0.120241
0.116142
0.112158
0.108286
0.104525
0.100871
0.0973229
0.093878
0.0905343
0.0872896
0.0841416
0.0810883
0.0781276
0.0752572
0.0724752
0.0697796
0.0671682
0.0646392
0.0621905
0.0598201
0.0575263
0.0553071
0.0531606
0.0510849
0.0490784
0.0471391
0.0452653
0.0434554
0.0417075
0.04002
0.0383913
0.0368197
0.0353037
0.0338416
0.032432
0.0310732
0.029764
0.0285027
0.0272879
0.0261183
0.0249925
0.0239091
0.0228669
0.0218645
0.0209007
0.0199743
0.0190839
0.0182286
0.0174071
0.0166183
0.0158611
0.0151345
0.0144374
0.0137688
0.0131277
0.0125131
0.0119241
0.0113599
0.0108195
0.010302
0.00980662
0.00933257
0.00887903
0.00844525
0.00803047
0.00763398
0.00725508
0.00689309
0.00654735
0.00621723
0.00590211
0.0056014
0.00531451
0.0050409
0.00478003
0.00453136
0.00429441
0.00406868
0.00385371
0.00364904
0.00345424
0.00326889
0.00309257
0.00292491
0.00276552
0.00261403
0.00247011
0.00233342
0.00220362
0.00208042
0.00196351
0.0018526
0.00174743
0.00164772
0.00155321
0.00146368
0.00137887
0.00129858
0.00122257
0.00115065
0.00108262
0.00101828
0.000957466
0.000899991
0.000845694
0.000794416
0.000746004
0.000700313
0.000657206
0.000616549
0.000578216
0.000542087
0.000508046
0.000475984
0.000445795
0.000417381
0.000390645
0.000365498
0.000341854
0.00031963
0.000298748
0.000279134
0.000260718
0.000243433
0.000227214
0.000212003
0.00019774
0.000184372
0.000171848
0.000160117
0.000149135
0.000138857
0.00012924
0.000120247
0.00011184
0.000103982
9.66425e-05
8.97883e-05
8.33899e-05
7.74193e-05
7.185e-05
6.6657e-05
6.18167e-05
5.73068e-05
5.31064e-05
4.91957e-05
4.55561e-05
4.21702e-05
3.90214e-05
3.60943e-05
3.33743e-05
3.08477e-05
2.85017e-05
2.63242e-05
2.4304e-05
2.24303e-05
2.06932e-05
1.90835e-05
1.75922e-05
1.62114e-05
1.49332e-05
1.37506e-05
1.26568e-05
1.16455e-05
1.07109e-05
9.84758e-06
9.05032e-06
8.3144e-06
7.63538e-06
7.00909e-06
6.43169e-06
5.89956e-06
5.40935e-06
4.95794e-06
4.54244e-06
4.16013e-06
3.80851e-06
3.48524e-06
3.18816e-06
2.91526e-06
2.66467e-06
2.43467e-06
2.22364e-06
2.0301e-06
1.85267e-06
1.69008e-06
1.54115e-06
1.40479e-06
1.27998e-06
1.1658e-06
1.06139e-06
9.65935e-07
8.78719e-07
7.99058e-07
7.26329e-07
6.59956e-07
5.99408e-07
5.44198e-07
4.93874e-07
4.48024e-07
4.06268e-07
3.68255e-07
3.33665e-07
3.02202e-07
2.73595e-07
2.47597e-07
2.23979e-07
2.02531e-07
1.83064e-07
1.65401e-07
1.49381e-07
1.34859e-07
1.21698e-07
1.09778e-07
9.89851e-08
8.9217e-08
8.03801e-08
7.23891e-08
6.5166e-08
5.86398e-08
5.27456e-08
4.74246e-08
4.26229e-08
3.82918e-08
3.43868e-08
3.08673e-08
2.76968e-08
2.48418e-08
2.22719e-08
1.99598e-08
1.78803e-08
1.60109e-08
1.43311e-08
1.28223e-08
1.14676e-08
1.02519e-08
9.16124e-09
8.18327e-09
7.3067e-09
6.52135e-09
5.81801e-09
5.1884e-09
4.62502e-09
4.12112e-09
3.67061e-09
3.268e-09
2.90836e-09
2.58723e-09
2.3006e-09
2.04489e-09
1.81685e-09
1.61358e-09
1.43246e-09
1.27114e-09
1.12753e-09
9.99728e-10
8.86047e-10
7.84969e-10
6.95135e-10
6.15327e-10
5.44457e-10
4.81551e-10
4.25737e-10
3.76236e-10
3.32354e-10
2.93469e-10
2.59026e-10
2.28531e-10
2.01543e-10
1.77669e-10
1.56558e-10
1.37898e-10
1.21412e-10
1.06853e-10
9.4001e-11
8.26606e-11
7.26582e-11
6.38398e-11
5.60684e-11
4.92228e-11
4.31951e-11
3.78898e-11
3.32225e-11
2.9118e-11
2.551e-11
2.23399e-11
1.95557e-11
1.71113e-11
1.49664e-11
1.30849e-11
1.14352e-11
9.98935e-12
8.72274e-12
7.6136e-12
6.64277e-12
5.79336e-12
5.05051e-12
4.40114e-12
3.83374e-12
3.33818e-12
2.90557e-12
2.52811e-12
2.19893e-12
1.91203e-12
1.66213e-12
1.44464e-12
1.25551e-12
1.09126e-12
9.4881e-13
8.25529e-13
7.19136e-13
6.27683e-13
5.49524e-13
4.83292e-13
4.27881e-13
3.82434e-13
3.46336e-13
3.19208e-13
3.00914e-13
2.91598e-13
0.992181
0.974979
0.957591
0.940311
0.923197
0.906261
0.889518
0.872972
0.856615
0.840437
0.824424
0.808566
0.792854
0.777279
0.761837
0.746527
0.731349
0.716303
0.701392
0.686621
0.671992
0.657511
0.643181
0.629009
0.614998
0.601153
0.587479
0.573979
0.560657
0.547517
0.534562
0.521794
0.509217
0.496833
0.484642
0.472648
0.460851
0.449252
0.437853
0.426652
0.415652
0.404851
0.394249
0.383847
0.373642
0.363636
0.353826
0.344211
0.33479
0.325562
0.316525
0.307678
0.299018
0.290544
0.282254
0.274145
0.266217
0.258466
0.25089
0.243488
0.236256
0.229192
0.222295
0.215561
0.208989
0.202575
0.196318
0.190214
0.184262
0.178458
0.172801
0.167288
0.161917
0.156684
0.151588
0.146626
0.141796
0.137095
0.13252
0.12807
0.123742
0.119533
0.115442
0.111466
0.107602
0.103848
0.100203
0.0966633
0.0932271
0.0898922
0.0866564
0.0835176
0.0804736
0.0775222
0.0746614
0.0718891
0.0692032
0.0666018
0.0640827
0.0616441
0.059284
0.0570004
0.0547914
0.0526552
0.0505899
0.0485937
0.0466648
0.0448014
0.0430018
0.0412643
0.0395871
0.0379687
0.0364073
0.0349014
0.0334494
0.0320498
0.030701
0.0294015
0.0281499
0.0269448
0.0257847
0.0246683
0.0235941
0.022561
0.0215676
0.0206126
0.0196949
0.0188131
0.0179661
0.0171529
0.0163722
0.0156229
0.014904
0.0142145
0.0135533
0.0129194
0.012312
0.0117299
0.0111725
0.0106386
0.0101276
0.00963848
0.00917053
0.00872294
0.00829494
0.00788578
0.00749475
0.00712115
0.00676431
0.00642357
0.0060983
0.00578788
0.00549172
0.00520925
0.00493991
0.00468317
0.0044385
0.00420541
0.00398342
0.00377206
0.00357087
0.00337943
0.00319732
0.00302413
0.00285948
0.002703
0.00255431
0.00241308
0.00227898
0.00215168
0.00203087
0.00191626
0.00180757
0.00170452
0.00160684
0.0015143
0.00142664
0.00134363
0.00126506
0.00119071
0.00112037
0.00105385
0.000990962
0.000931529
0.000875378
0.000822346
0.000772276
0.000725018
0.000680429
0.000638372
0.000598717
0.000561339
0.00052612
0.000492946
0.000461708
0.000432305
0.000404637
0.000378612
0.00035414
0.000331137
0.000309522
0.000289218
0.000270153
0.000252257
0.000235465
0.000219715
0.000204946
0.000191102
0.000178132
0.000165983
0.000154607
0.000143961
0.000133999
0.000124683
0.000115972
0.000107832
0.000100226
9.31236e-05
8.6493e-05
8.03053e-05
7.45332e-05
6.91506e-05
6.41333e-05
5.94582e-05
5.51037e-05
5.10492e-05
4.72755e-05
4.37646e-05
4.04994e-05
3.74638e-05
3.46429e-05
3.20223e-05
2.95889e-05
2.73302e-05
2.52344e-05
2.32905e-05
2.14882e-05
1.98179e-05
1.82705e-05
1.68376e-05
1.55111e-05
1.42836e-05
1.31483e-05
1.20985e-05
1.11284e-05
1.0232e-05
9.40428e-06
8.64016e-06
7.93507e-06
7.28469e-06
6.68503e-06
6.13236e-06
5.62319e-06
5.15429e-06
4.72265e-06
4.32546e-06
3.96014e-06
3.62425e-06
3.31555e-06
3.03195e-06
2.77152e-06
2.53247e-06
2.31312e-06
2.11194e-06
1.92749e-06
1.75846e-06
1.60361e-06
1.46182e-06
1.33204e-06
1.2133e-06
1.10471e-06
1.00543e-06
9.14712e-07
8.31846e-07
7.56186e-07
6.87132e-07
6.24135e-07
5.66686e-07
5.14319e-07
4.66604e-07
4.23145e-07
3.8358e-07
3.47575e-07
3.14822e-07
2.85041e-07
2.57973e-07
2.33382e-07
2.11049e-07
1.90776e-07
1.72381e-07
1.55696e-07
1.4057e-07
1.26861e-07
1.14443e-07
1.03199e-07
9.30216e-08
8.38139e-08
7.54869e-08
6.79595e-08
6.11578e-08
5.50145e-08
4.94681e-08
4.44627e-08
3.99475e-08
3.58762e-08
3.22066e-08
2.89006e-08
2.59233e-08
2.32432e-08
2.08317e-08
1.86627e-08
1.67128e-08
1.49604e-08
1.33863e-08
1.19729e-08
1.07043e-08
9.56625e-09
8.54566e-09
7.63082e-09
6.81112e-09
6.07697e-09
5.41972e-09
4.83157e-09
4.30548e-09
3.83509e-09
3.41469e-09
3.03912e-09
2.70374e-09
2.40439e-09
2.13729e-09
1.89909e-09
1.68674e-09
1.49751e-09
1.32896e-09
1.1789e-09
1.04535e-09
9.26552e-10
8.20912e-10
7.27017e-10
6.43596e-10
5.69511e-10
5.03746e-10
4.45392e-10
3.93635e-10
3.47748e-10
3.07084e-10
2.71063e-10
2.39168e-10
2.10939e-10
1.85965e-10
1.6388e-10
1.44358e-10
1.27109e-10
1.11875e-10
9.84263e-11
8.65582e-11
7.60897e-11
6.68597e-11
5.8725e-11
5.15587e-11
4.52482e-11
3.96937e-11
3.48066e-11
3.05086e-11
2.67303e-11
2.34102e-11
2.04941e-11
1.79338e-11
1.56868e-11
1.37157e-11
1.19874e-11
1.04725e-11
9.14529e-12
7.98299e-12
6.96556e-12
6.07531e-12
5.29669e-12
4.61599e-12
4.02117e-12
3.50162e-12
3.04804e-12
2.65223e-12
2.30702e-12
2.00612e-12
1.744e-12
1.51584e-12
1.3174e-12
1.14502e-12
9.95492e-13
8.66035e-13
7.54261e-13
6.58121e-13
5.75887e-13
5.0612e-13
4.47658e-13
3.99605e-13
3.61323e-13
3.3244e-13
3.12854e-13
3.02808e-13
0.993152
0.978248
0.962627
0.946704
0.930693
0.91466
0.898647
0.882683
0.866786
0.850966
0.835229
0.81958
0.80402
0.788553
0.773183
0.757913
0.742748
0.727695
0.712759
0.697946
0.683262
0.668714
0.654307
0.640048
0.625943
0.611996
0.598213
0.584598
0.571155
0.55789
0.544805
0.531903
0.519188
0.506662
0.494327
0.482185
0.470238
0.458487
0.446934
0.435578
0.42442
0.413461
0.402701
0.392139
0.381775
0.371608
0.361637
0.351863
0.342282
0.332895
0.3237
0.314694
0.305878
0.297248
0.288803
0.280542
0.272462
0.26456
0.256836
0.249287
0.24191
0.234703
0.227664
0.220791
0.214081
0.207532
0.201142
0.194907
0.188826
0.182896
0.177115
0.171479
0.165988
0.160638
0.155426
0.150351
0.14541
0.140601
0.13592
0.131366
0.126936
0.122629
0.11844
0.114369
0.110413
0.106569
0.102835
0.0992092
0.0956891
0.0922724
0.088957
0.0857405
0.0826208
0.0795959
0.0766635
0.0738215
0.0710679
0.0684006
0.0658175
0.0633167
0.0608962
0.058554
0.0562881
0.0540968
0.0519779
0.0499299
0.0479507
0.0460385
0.0441917
0.0424085
0.0406871
0.0390258
0.037423
0.0358771
0.0343863
0.0329493
0.0315643
0.0302299
0.0289446
0.0277069
0.0265154
0.0253686
0.0242653
0.023204
0.0221834
0.0212023
0.0202593
0.0193533
0.018483
0.0176472
0.0168448
0.0160748
0.0153359
0.0146271
0.0139475
0.0132958
0.0126713
0.0120729
0.0114997
0.0109508
0.0104253
0.00992234
0.00944109
0.00898076
0.00854054
0.00811969
0.00771746
0.00733314
0.00696603
0.00661548
0.00628081
0.00596142
0.00565667
0.005366
0.00508882
0.00482459
0.00457278
0.00433287
0.00410437
0.0038868
0.00367969
0.0034826
0.00329511
0.00311679
0.00294726
0.00278612
0.00263301
0.00248756
0.00234945
0.00221833
0.0020939
0.00197585
0.00186388
0.00175772
0.00165709
0.00156174
0.00147142
0.00138588
0.00130492
0.00122829
0.0011558
0.00108724
0.00102242
0.000961155
0.000903272
0.000848601
0.000796979
0.000748254
0.000702278
0.00065891
0.000618016
0.000579469
0.000543145
0.000508928
0.000476707
0.000446376
0.000417833
0.000390983
0.000365735
0.000342
0.000319695
0.000298743
0.000279068
0.000260598
0.000243266
0.000227008
0.000211762
0.000197471
0.00018408
0.000171536
0.000159791
0.000148797
0.00013851
0.000128888
0.000119891
0.000111483
0.000103627
9.62896e-05
8.94394e-05
8.30465e-05
7.70824e-05
7.15205e-05
6.63357e-05
6.15041e-05
5.70035e-05
5.28128e-05
4.8912e-05
4.52826e-05
4.1907e-05
3.87686e-05
3.58518e-05
3.31421e-05
3.06257e-05
2.82897e-05
2.61221e-05
2.41115e-05
2.22472e-05
2.05193e-05
1.89185e-05
1.74359e-05
1.60634e-05
1.47932e-05
1.36183e-05
1.2532e-05
1.15278e-05
1.06001e-05
9.74321e-06
8.95218e-06
8.2222e-06
7.54882e-06
6.92791e-06
6.3556e-06
5.82831e-06
5.34268e-06
4.89561e-06
4.4842e-06
4.10576e-06
3.75778e-06
3.43795e-06
3.14411e-06
2.87425e-06
2.62652e-06
2.3992e-06
2.19069e-06
1.99951e-06
1.82429e-06
1.66377e-06
1.51677e-06
1.38221e-06
1.25909e-06
1.14648e-06
1.04352e-06
9.49436e-07
8.63488e-07
7.85006e-07
7.13372e-07
6.48016e-07
5.88412e-07
5.34076e-07
4.84563e-07
4.39464e-07
3.98403e-07
3.61032e-07
3.27035e-07
2.96121e-07
2.6802e-07
2.42489e-07
2.193e-07
1.9825e-07
1.79147e-07
1.61819e-07
1.46109e-07
1.3187e-07
1.1897e-07
1.07289e-07
9.67155e-08
8.71486e-08
7.8496e-08
7.06738e-08
6.36052e-08
5.72202e-08
5.14553e-08
4.62522e-08
4.15584e-08
3.73256e-08
3.35103e-08
3.00727e-08
2.69766e-08
2.41895e-08
2.16814e-08
1.94254e-08
1.7397e-08
1.55741e-08
1.39364e-08
1.24659e-08
1.11459e-08
9.96162e-09
8.89951e-09
7.94739e-09
7.09421e-09
6.33002e-09
5.64583e-09
5.03352e-09
4.48577e-09
3.99598e-09
3.55821e-09
3.16709e-09
2.8178e-09
2.506e-09
2.22779e-09
1.97965e-09
1.75842e-09
1.56127e-09
1.38565e-09
1.22928e-09
1.09011e-09
9.66289e-10
8.56183e-10
7.5831e-10
6.71348e-10
5.94114e-10
5.25548e-10
4.64702e-10
4.10732e-10
3.6288e-10
3.2047e-10
2.829e-10
2.49631e-10
2.20184e-10
1.9413e-10
1.71088e-10
1.50719e-10
1.3272e-10
1.16822e-10
1.02786e-10
9.03991e-11
7.94721e-11
6.9837e-11
6.13446e-11
5.38627e-11
4.72738e-11
4.14737e-11
3.63702e-11
3.18815e-11
2.79353e-11
2.44674e-11
2.14211e-11
1.87464e-11
1.63989e-11
1.43394e-11
1.25334e-11
1.09503e-11
9.56328e-12
8.34849e-12
7.28501e-12
6.35441e-12
5.54042e-12
4.82876e-12
4.20682e-12
3.66354e-12
3.1892e-12
2.77525e-12
2.41418e-12
2.09941e-12
1.82518e-12
1.58644e-12
1.37878e-12
1.19835e-12
1.04179e-12
9.06201e-13
7.89078e-13
6.88276e-13
6.01981e-13
5.28685e-13
4.67172e-13
4.16503e-13
3.76026e-13
3.45372e-13
3.24484e-13
3.13699e-13
0.99385
0.980558
0.966381
0.951669
0.936668
0.921478
0.906163
0.890769
0.875332
0.859878
0.844429
0.829001
0.813607
0.798261
0.782974
0.767756
0.752618
0.737569
0.722619
0.707776
0.69305
0.678448
0.663978
0.649647
0.635462
0.621428
0.607552
0.593838
0.580293
0.566919
0.553722
0.540704
0.52787
0.515222
0.502762
0.490493
0.478416
0.466534
0.454847
0.443357
0.432063
0.420968
0.41007
0.399369
0.388867
0.378561
0.368452
0.358538
0.348819
0.339294
0.329961
0.320819
0.311867
0.303102
0.294523
0.286129
0.277917
0.269885
0.262032
0.254355
0.246852
0.239521
0.232359
0.225365
0.218536
0.211869
0.205363
0.199014
0.192821
0.186781
0.180891
0.17515
0.169554
0.164102
0.15879
0.153616
0.148579
0.143675
0.138902
0.134257
0.129739
0.125344
0.121072
0.116918
0.11288
0.108958
0.105147
0.101446
0.0978527
0.0943645
0.0909794
0.0876951
0.0845094
0.0814201
0.078425
0.0755221
0.0727092
0.0699843
0.0673452
0.06479
0.0623166
0.0599231
0.0576074
0.0553676
0.0532019
0.0511083
0.049085
0.0471301
0.0452419
0.0434185
0.0416583
0.0399594
0.0383202
0.0367391
0.0352143
0.0337444
0.0323276
0.0309625
0.0296475
0.0283812
0.027162
0.0259886
0.0248595
0.0237734
0.0227288
0.0217246
0.0207594
0.019832
0.0189411
0.0180855
0.0172641
0.0164756
0.0157191
0.0149933
0.0142973
0.01363
0.0129904
0.0123776
0.0117905
0.0112282
0.0106899
0.0101747
0.00968168
0.00921006
0.00875903
0.00832782
0.00791567
0.00752185
0.00714565
0.00678639
0.0064434
0.00611603
0.00580368
0.00550572
0.00522159
0.00495072
0.00469256
0.00444659
0.0042123
0.00398921
0.00377684
0.00357473
0.00338245
0.00319958
0.00302569
0.00286042
0.00270336
0.00255417
0.00241248
0.00227797
0.0021503
0.00202918
0.00191429
0.00180535
0.00170209
0.00160424
0.00151154
0.00142375
0.00134064
0.00126199
0.00118757
0.00111719
0.00105064
0.000987745
0.000928313
0.000872175
0.000819165
0.000769127
0.00072191
0.000677368
0.000635366
0.00059577
0.000558457
0.000523306
0.000490203
0.00045904
0.000429713
0.000402123
0.000376177
0.000351785
0.000328862
0.000307328
0.000287104
0.000268118
0.000250302
0.000233587
0.000217913
0.000203219
0.00018945
0.000176551
0.000164472
0.000153165
0.000142585
0.000132688
0.000123434
0.000114784
0.000106702
9.91535e-05
9.21054e-05
8.55273e-05
7.939e-05
7.36663e-05
6.83302e-05
6.33574e-05
5.8725e-05
5.44111e-05
5.03956e-05
4.66591e-05
4.31836e-05
3.99521e-05
3.69487e-05
3.41583e-05
3.15668e-05
2.91609e-05
2.69283e-05
2.48573e-05
2.29368e-05
2.11568e-05
1.95075e-05
1.79799e-05
1.65656e-05
1.52568e-05
1.4046e-05
1.29264e-05
1.18914e-05
1.09351e-05
1.00518e-05
9.23638e-06
8.48378e-06
7.7895e-06
7.14927e-06
6.55912e-06
6.01534e-06
5.5145e-06
5.05339e-06
4.62903e-06
4.23865e-06
3.87968e-06
3.54971e-06
3.24654e-06
2.96809e-06
2.71246e-06
2.47787e-06
2.26267e-06
2.06535e-06
1.88449e-06
1.71879e-06
1.56704e-06
1.42811e-06
1.30099e-06
1.18472e-06
1.0784e-06
9.81236e-07
8.9247e-07
8.1141e-07
7.37418e-07
6.69905e-07
6.08329e-07
5.52192e-07
5.01035e-07
4.54434e-07
4.12002e-07
3.73382e-07
3.38246e-07
3.06292e-07
2.77246e-07
2.50853e-07
2.26881e-07
2.05116e-07
1.85365e-07
1.67448e-07
1.51201e-07
1.36475e-07
1.23134e-07
1.11052e-07
1.00114e-07
9.02174e-08
8.12659e-08
7.31728e-08
6.58588e-08
5.92518e-08
5.32858e-08
4.79011e-08
4.30429e-08
3.86617e-08
3.47122e-08
3.11535e-08
2.79481e-08
2.50624e-08
2.24653e-08
2.01292e-08
1.80286e-08
1.61406e-08
1.44444e-08
1.29212e-08
1.15538e-08
1.03269e-08
9.2265e-09
8.23997e-09
7.3559e-09
6.56398e-09
5.85491e-09
5.2203e-09
4.65255e-09
4.14484e-09
3.69102e-09
3.28554e-09
2.92339e-09
2.6001e-09
2.3116e-09
2.05427e-09
1.82483e-09
1.62035e-09
1.43818e-09
1.27598e-09
1.13159e-09
1.00314e-09
8.88896e-10
7.87339e-10
6.97097e-10
6.16944e-10
5.45782e-10
4.82628e-10
4.26606e-10
3.76931e-10
3.32903e-10
2.93896e-10
2.59352e-10
2.28774e-10
2.01718e-10
1.77788e-10
1.56632e-10
1.37937e-10
1.21423e-10
1.06842e-10
9.39726e-11
8.26195e-11
7.26079e-11
6.37832e-11
5.60078e-11
4.91599e-11
4.31315e-11
3.78267e-11
3.31606e-11
2.90581e-11
2.54526e-11
2.22853e-11
1.9504e-11
1.70628e-11
1.4921e-11
1.30427e-11
1.13961e-11
9.95327e-12
8.68955e-12
7.58316e-12
6.61493e-12
5.76798e-12
5.02743e-12
4.3802e-12
3.81479e-12
3.32108e-12
2.89018e-12
2.51431e-12
2.1866e-12
1.90106e-12
1.65245e-12
1.43617e-12
1.2482e-12
1.08507e-12
9.43751e-13
8.21623e-13
7.16455e-13
6.26354e-13
5.49747e-13
4.85366e-13
4.32238e-13
3.89691e-13
3.57366e-13
3.35247e-13
3.23765e-13
0.994369
0.982214
0.969135
0.955408
0.941259
0.926795
0.912093
0.897211
0.882193
0.867078
0.851899
0.836681
0.821449
0.806222
0.791019
0.775857
0.76075
0.745713
0.730758
0.715897
0.70114
0.686497
0.671977
0.657588
0.643338
0.629234
0.615283
0.601489
0.587859
0.574397
0.561108
0.547995
0.535063
0.522314
0.509752
0.497378
0.485195
0.473204
0.461408
0.449806
0.438401
0.427192
0.416181
0.405367
0.39475
0.38433
0.374106
0.364078
0.354245
0.344606
0.335159
0.325904
0.316839
0.307963
0.299274
0.290769
0.282449
0.274309
0.266349
0.258567
0.25096
0.243526
0.236262
0.229168
0.22224
0.215476
0.208874
0.202431
0.196145
0.190014
0.184035
0.178205
0.172523
0.166986
0.161591
0.156336
0.151218
0.146236
0.141386
0.136667
0.132075
0.127609
0.123266
0.119043
0.114939
0.110951
0.107076
0.103313
0.0996585
0.0961111
0.0926681
0.0893274
0.0860868
0.082944
0.0798969
0.0769433
0.0740811
0.0713082
0.0686225
0.066022
0.0635046
0.0610683
0.0587111
0.0564311
0.0542263
0.0520948
0.0500347
0.0480442
0.0461214
0.0442646
0.0424719
0.0407417
0.0390722
0.0374616
0.0359085
0.034411
0.0329677
0.031577
0.0302372
0.0289469
0.0277046
0.0265089
0.0253583
0.0242514
0.0231869
0.0221634
0.0211796
0.0202343
0.0193261
0.0184539
0.0176165
0.0168126
0.0160413
0.0153013
0.0145916
0.0139112
0.013259
0.012634
0.0120352
0.0114618
0.0109128
0.0103872
0.00988435
0.00940326
0.00894315
0.00850324
0.00808275
0.00768095
0.00729711
0.00693053
0.00658054
0.00624648
0.00592772
0.00562364
0.00533366
0.00505719
0.00479369
0.00454263
0.00430347
0.00407573
0.00385893
0.00365259
0.00345628
0.00326956
0.00309202
0.00292325
0.00276287
0.00261051
0.00246581
0.00232843
0.00219805
0.00207433
0.00195697
0.00184569
0.00174021
0.00164024
0.00154553
0.00145584
0.00137093
0.00129056
0.00121452
0.00114259
0.00107459
0.0010103
0.00094956
0.000892181
0.000837998
0.000786848
0.00073858
0.000693045
0.000650102
0.000609619
0.000571467
0.000535525
0.000501675
0.000469806
0.000439814
0.000411597
0.00038506
0.000360111
0.000336663
0.000314634
0.000293945
0.000274521
0.000256292
0.000239191
0.000223152
0.000208116
0.000194025
0.000180825
0.000168462
0.00015689
0.00014606
0.00013593
0.000126456
0.000117601
0.000109327
0.000101598
9.43812e-05
8.76453e-05
8.13606e-05
7.5499e-05
7.0034e-05
6.49409e-05
6.0196e-05
5.57772e-05
5.16637e-05
4.78359e-05
4.42752e-05
4.09644e-05
3.7887e-05
3.50277e-05
3.2372e-05
2.99065e-05
2.76184e-05
2.54957e-05
2.35273e-05
2.17027e-05
2.0012e-05
1.84459e-05
1.6996e-05
1.56541e-05
1.44126e-05
1.32645e-05
1.22032e-05
1.12224e-05
1.03166e-05
9.48018e-06
8.70823e-06
7.99605e-06
7.33927e-06
6.73382e-06
6.17593e-06
5.66205e-06
5.18891e-06
4.75345e-06
4.35283e-06
3.98442e-06
3.64576e-06
3.33458e-06
3.04877e-06
2.78635e-06
2.54552e-06
2.32459e-06
2.12199e-06
1.93629e-06
1.76614e-06
1.6103e-06
1.46763e-06
1.33707e-06
1.21764e-06
1.10844e-06
1.00863e-06
9.1744e-07
8.34162e-07
7.5814e-07
6.88772e-07
6.255e-07
5.67812e-07
5.15239e-07
4.67345e-07
4.23733e-07
3.84036e-07
3.47919e-07
3.15071e-07
2.85209e-07
2.58074e-07
2.33425e-07
2.11046e-07
1.90735e-07
1.72309e-07
1.55601e-07
1.40455e-07
1.26732e-07
1.14304e-07
1.03052e-07
9.28708e-08
8.36611e-08
7.5334e-08
6.78082e-08
6.10093e-08
5.48698e-08
4.9328e-08
4.43278e-08
3.98182e-08
3.57528e-08
3.20893e-08