/*--------------------------------*- C++ -*----------------------------------*\
  =========                 |
  \\      /  F ield         | OpenFOAM: The Open Source CFD Toolbox
   \\    /   O peration     | Website:  https://openfoam.org
    \\  /    A nd           | Version:  dev
     \\/     M anipulation  |
\*---------------------------------------------------------------------------*/
FoamFile
{
    format      ascii;
    class       volScalarField;
    location    "0.82";
    object      Exp1;
}
// * * * * * * * * * * * * * * * * * * * * * * * * * * * * * * * * * * * * * //

dimensions      [0 0 0 0 0 0 0];

internalField   uniform 0;

boundaryField
{
    frontAndBack
    {
        type            empty;
    }
    inlet
    {
        type            calculated;
        value           uniform 0;
    }
    outlet
    {
        type            calculated;
        value           uniform 0;
    }
    substrate
    {
        type            calculated;
        value           nonuniform List<scalar> 
400
(
1.70429e-20
5.42825e-20
9.52526e-20
1.39781e-19
1.87898e-19
2.39772e-19
2.95564e-19
3.55448e-19
4.19614e-19
4.88272e-19
5.61643e-19
6.39962e-19
7.23469e-19
8.12413e-19
9.07052e-19
1.00764e-18
1.11446e-18
1.22776e-18
1.34783e-18
1.47495e-18
1.60939e-18
1.75146e-18
1.90144e-18
2.05964e-18
2.22635e-18
2.4019e-18
2.5866e-18
2.78078e-18
2.98477e-18
3.19891e-18
3.42355e-18
3.65904e-18
3.90574e-18
4.16404e-18
4.43431e-18
4.71695e-18
5.01234e-18
5.32091e-18
5.64306e-18
5.97924e-18
6.32988e-18
6.69544e-18
7.07637e-18
7.47315e-18
7.88626e-18
8.31622e-18
8.76352e-18
9.22869e-18
9.71228e-18
1.02148e-17
1.07369e-17
1.12791e-17
1.1842e-17
1.24262e-17
1.30324e-17
1.36612e-17
1.43133e-17
1.49893e-17
1.569e-17
1.6416e-17
1.71681e-17
1.79471e-17
1.87538e-17
1.9589e-17
2.04534e-17
2.13479e-17
2.22735e-17
2.3231e-17
2.42213e-17
2.52453e-17
2.63041e-17
2.73987e-17
2.85301e-17
2.96993e-17
3.09074e-17
3.21556e-17
3.3445e-17
3.47769e-17
3.61523e-17
3.75726e-17
3.90391e-17
4.05531e-17
4.21159e-17
4.3729e-17
4.53938e-17
4.71118e-17
4.88845e-17
5.07135e-17
5.26005e-17
5.4547e-17
5.65548e-17
5.86257e-17
6.07615e-17
6.29639e-17
6.5235e-17
6.75768e-17
6.99911e-17
7.24802e-17
7.50462e-17
7.76913e-17
8.04177e-17
8.32278e-17
8.6124e-17
8.91087e-17
9.21845e-17
9.53541e-17
9.862e-17
1.01985e-16
1.05452e-16
1.09024e-16
1.12704e-16
1.16495e-16
1.204e-16
1.24422e-16
1.28566e-16
1.32833e-16
1.37229e-16
1.41756e-16
1.46418e-16
1.51219e-16
1.56163e-16
1.61254e-16
1.66496e-16
1.71895e-16
1.77453e-16
1.83175e-16
1.89067e-16
1.95134e-16
2.01379e-16
2.07808e-16
2.14427e-16
2.2124e-16
2.28253e-16
2.35473e-16
2.42904e-16
2.50553e-16
2.58425e-16
2.66528e-16
2.74868e-16
2.83451e-16
2.92284e-16
3.01375e-16
3.1073e-16
3.20357e-16
3.30263e-16
3.40458e-16
3.50947e-16
3.61741e-16
3.72847e-16
3.84274e-16
3.96031e-16
4.08127e-16
4.20573e-16
4.33376e-16
4.46549e-16
4.601e-16
4.7404e-16
4.88381e-16
5.03133e-16
5.18308e-16
5.33917e-16
5.49973e-16
5.66488e-16
5.83474e-16
6.00945e-16
6.18914e-16
6.37395e-16
6.56401e-16
6.75948e-16
6.9605e-16
7.16722e-16
7.3798e-16
7.59841e-16
7.8232e-16
8.05435e-16
8.29202e-16
8.53641e-16
8.78768e-16
9.04603e-16
9.31165e-16
9.58474e-16
9.86551e-16
1.01541e-15
1.04509e-15
1.07559e-15
1.10695e-15
1.13918e-15
1.17232e-15
1.20638e-15
1.24139e-15
1.27737e-15
1.31435e-15
1.35236e-15
1.39143e-15
1.43158e-15
1.47284e-15
1.51525e-15
1.55882e-15
1.6036e-15
1.64962e-15
1.6969e-15
1.74548e-15
1.7954e-15
1.84669e-15
1.89939e-15
1.95353e-15
2.00916e-15
2.0663e-15
2.12501e-15
2.18532e-15
2.24727e-15
2.31091e-15
2.37628e-15
2.44342e-15
2.51239e-15
2.58322e-15
2.65597e-15
2.73069e-15
2.80742e-15
2.88623e-15
2.96715e-15
3.05026e-15
3.13559e-15
3.22321e-15
3.31318e-15
3.40556e-15
3.50041e-15
3.59779e-15
3.69777e-15
3.80041e-15
3.90577e-15
4.01394e-15
4.12497e-15
4.23894e-15
4.35593e-15
4.47601e-15
4.59925e-15
4.72574e-15
4.85555e-15
4.98878e-15
5.12549e-15
5.26579e-15
5.40976e-15
5.55748e-15
5.70906e-15
5.86459e-15
6.02415e-15
6.18786e-15
6.35581e-15
6.52811e-15
6.70486e-15
6.88617e-15
7.07215e-15
7.26291e-15
7.45858e-15
7.65926e-15
7.86507e-15
8.07615e-15
8.29261e-15
8.51459e-15
8.74221e-15
8.97561e-15
9.21493e-15
9.46031e-15
9.71188e-15
9.9698e-15
1.02342e-14
1.05053e-14
1.07831e-14
1.1068e-14
1.13599e-14
1.16591e-14
1.19658e-14
1.22801e-14
1.26022e-14
1.29323e-14
1.32706e-14
1.36172e-14
1.39724e-14
1.43362e-14
1.47091e-14
1.5091e-14
1.54823e-14
1.58832e-14
1.62938e-14
1.67144e-14
1.71451e-14
1.75864e-14
1.80383e-14
1.8501e-14
1.89749e-14
1.94602e-14
1.99572e-14
2.0466e-14
2.09869e-14
2.15203e-14
2.20663e-14
2.26252e-14
2.31974e-14
2.37831e-14
2.43825e-14
2.49961e-14
2.5624e-14
2.62665e-14
2.69241e-14
2.75969e-14
2.82854e-14
2.89898e-14
2.97104e-14
3.04477e-14
3.12018e-14
3.19732e-14
3.27623e-14
3.35693e-14
3.43946e-14
3.52385e-14
3.61016e-14
3.6984e-14
3.78862e-14
3.88086e-14
3.97515e-14
4.07154e-14
4.17006e-14
4.27075e-14
4.37365e-14
4.47881e-14
4.58625e-14
4.69603e-14
4.80818e-14
4.92275e-14
5.03976e-14
5.15928e-14
5.28133e-14
5.40596e-14
5.53321e-14
5.66311e-14
5.79572e-14
5.93106e-14
6.06918e-14
6.21012e-14
6.35391e-14
6.5006e-14
6.65021e-14
6.80278e-14
6.95835e-14
7.11694e-14
7.2786e-14
7.44334e-14
7.61118e-14
7.78217e-14
7.9563e-14
8.13361e-14
8.3141e-14
8.49778e-14
8.68466e-14
8.87474e-14
9.06801e-14
9.26445e-14
9.46407e-14
9.66681e-14
9.87266e-14
1.00816e-13
1.02935e-13
1.05084e-13
1.07261e-13
1.09466e-13
1.11698e-13
1.13956e-13
1.16238e-13
1.18543e-13
1.20869e-13
1.23214e-13
1.25577e-13
1.27954e-13
1.30342e-13
1.3274e-13
1.35143e-13
1.37548e-13
1.39951e-13
1.42346e-13
1.4473e-13
1.47096e-13
1.49439e-13
1.51751e-13
1.54026e-13
1.56254e-13
1.58428e-13
1.60538e-13
1.62573e-13
1.64522e-13
1.66372e-13
1.68109e-13
1.6972e-13
1.71189e-13
1.72499e-13
1.73633e-13
1.74574e-13
1.75303e-13
1.75803e-13
1.76058e-13
)
;
    }
    Wall
    {
        type            calculated;
        value           nonuniform List<scalar> 
400
(
1.70426e-20
5.42815e-20
9.52506e-20
1.39778e-19
1.87894e-19
2.39766e-19
2.95556e-19
3.55438e-19
4.19602e-19
4.88257e-19
5.61625e-19
6.3994e-19
7.23443e-19
8.12384e-19
9.07018e-19
1.00761e-18
1.11441e-18
1.22771e-18
1.34778e-18
1.47489e-18
1.60933e-18
1.75139e-18
1.90136e-18
2.05955e-18
2.22626e-18
2.4018e-18
2.5865e-18
2.78067e-18
2.98465e-18
3.19878e-18
3.42341e-18
3.65889e-18
3.90559e-18
4.16388e-18
4.43415e-18
4.71677e-18
5.01216e-18
5.32071e-18
5.64286e-18
5.97903e-18
6.32966e-18
6.6952e-18
7.07612e-18
7.47289e-18
7.88599e-18
8.31593e-18
8.76322e-18
9.22838e-18
9.71195e-18
1.02145e-17
1.07366e-17
1.12787e-17
1.18416e-17
1.24258e-17
1.3032e-17
1.36608e-17
1.43128e-17
1.49888e-17
1.56895e-17
1.64155e-17
1.71676e-17
1.79466e-17
1.87532e-17
1.95884e-17
2.04527e-17
2.13473e-17
2.22728e-17
2.32303e-17
2.42205e-17
2.52446e-17
2.63034e-17
2.73979e-17
2.85292e-17
2.96984e-17
3.09065e-17
3.21547e-17
3.34441e-17
3.47759e-17
3.61513e-17
3.75715e-17
3.9038e-17
4.05519e-17
4.21147e-17
4.37277e-17
4.53925e-17
4.71105e-17
4.88831e-17
5.07121e-17
5.2599e-17
5.45455e-17
5.65532e-17
5.86241e-17
6.07597e-17
6.29622e-17
6.52332e-17
6.75749e-17
6.99892e-17
7.24782e-17
7.50441e-17
7.76891e-17
8.04154e-17
8.32254e-17
8.61216e-17
8.91062e-17
9.2182e-17
9.53514e-17
9.86172e-17
1.01982e-16
1.05449e-16
1.09021e-16
1.12701e-16
1.16492e-16
1.20397e-16
1.24419e-16
1.28562e-16
1.3283e-16
1.37225e-16
1.41752e-16
1.46414e-16
1.51215e-16
1.56158e-16
1.6125e-16
1.66492e-16
1.7189e-16
1.77448e-16
1.83171e-16
1.89062e-16
1.95128e-16
2.01373e-16
2.07802e-16
2.14421e-16
2.21234e-16
2.28247e-16
2.35466e-16
2.42897e-16
2.50546e-16
2.58419e-16
2.66521e-16
2.74861e-16
2.83443e-16
2.92276e-16
3.01367e-16
3.10722e-16
3.20348e-16
3.30255e-16
3.40449e-16
3.50938e-16
3.61731e-16
3.72837e-16
3.84264e-16
3.96021e-16
4.08117e-16
4.20562e-16
4.33365e-16
4.46537e-16
4.60088e-16
4.74028e-16
4.88369e-16
5.0312e-16
5.18295e-16
5.33904e-16
5.49959e-16
5.66473e-16
5.83459e-16
6.00929e-16
6.18898e-16
6.37378e-16
6.56384e-16
6.7593e-16
6.96032e-16
7.16703e-16
7.37961e-16
7.59821e-16
7.823e-16
8.05414e-16
8.29181e-16
8.53619e-16
8.78745e-16
9.0458e-16
9.31141e-16
9.5845e-16
9.86525e-16
1.01539e-15
1.04506e-15
1.07556e-15
1.10692e-15
1.13915e-15
1.17229e-15
1.20635e-15
1.24135e-15
1.27734e-15
1.31432e-15
1.35233e-15
1.39139e-15
1.43154e-15
1.4728e-15
1.51521e-15
1.55878e-15
1.60356e-15
1.64957e-15
1.69685e-15
1.74544e-15
1.79536e-15
1.84665e-15
1.89934e-15
1.95348e-15
2.00911e-15
2.06625e-15
2.12496e-15
2.18526e-15
2.24721e-15
2.31085e-15
2.37622e-15
2.44336e-15
2.51232e-15
2.58316e-15
2.65591e-15
2.73062e-15
2.80735e-15
2.88615e-15
2.96708e-15
3.05018e-15
3.13551e-15
3.22313e-15
3.3131e-15
3.40548e-15
3.50032e-15
3.5977e-15
3.69768e-15
3.80031e-15
3.90567e-15
4.01384e-15
4.12487e-15
4.23884e-15
4.35582e-15
4.47589e-15
4.59913e-15
4.72562e-15
4.85543e-15
4.98865e-15
5.12536e-15
5.26566e-15
5.40962e-15
5.55734e-15
5.70892e-15
5.86444e-15
6.024e-15
6.1877e-15
6.35565e-15
6.52794e-15
6.70469e-15
6.88599e-15
7.07197e-15
7.26273e-15
7.45839e-15
7.65906e-15
7.86487e-15
8.07595e-15
8.2924e-15
8.51437e-15
8.74199e-15
8.97539e-15
9.2147e-15
9.46007e-15
9.71164e-15
9.96955e-15
1.0234e-14
1.0505e-14
1.07829e-14
1.10677e-14
1.13596e-14
1.16588e-14
1.19655e-14
1.22798e-14
1.26019e-14
1.2932e-14
1.32703e-14
1.36169e-14
1.3972e-14
1.43359e-14
1.47087e-14
1.50906e-14
1.54819e-14
1.58828e-14
1.62933e-14
1.67139e-14
1.71447e-14
1.75859e-14
1.80378e-14
1.85006e-14
1.89745e-14
1.94597e-14
1.99567e-14
2.04655e-14
2.09864e-14
2.15197e-14
2.20657e-14
2.26247e-14
2.31968e-14
2.37825e-14
2.43819e-14
2.49954e-14
2.56233e-14
2.62659e-14
2.69234e-14
2.75963e-14
2.82847e-14
2.89891e-14
2.97097e-14
3.04469e-14
3.1201e-14
3.19724e-14
3.27615e-14
3.35684e-14
3.43937e-14
3.52377e-14
3.61007e-14
3.69831e-14
3.78853e-14
3.88077e-14
3.97506e-14
4.07144e-14
4.16996e-14
4.27065e-14
4.37355e-14
4.4787e-14
4.58614e-14
4.69592e-14
4.80807e-14
4.92263e-14
5.03964e-14
5.15916e-14
5.2812e-14
5.40583e-14
5.53308e-14
5.66298e-14
5.79558e-14
5.93092e-14
6.06904e-14
6.20997e-14
6.35376e-14
6.50044e-14
6.65005e-14
6.80262e-14
6.95819e-14
7.11678e-14
7.27843e-14
7.44316e-14
7.61101e-14
7.78199e-14
7.95612e-14
8.13342e-14
8.3139e-14
8.49758e-14
8.68446e-14
8.87453e-14
9.0678e-14
9.26424e-14
9.46385e-14
9.66659e-14
9.87244e-14
1.00813e-13
1.02933e-13
1.05081e-13
1.07259e-13
1.09464e-13
1.11696e-13
1.13954e-13
1.16236e-13
1.1854e-13
1.20867e-13
1.23212e-13
1.25574e-13
1.27951e-13
1.3034e-13
1.32737e-13
1.3514e-13
1.37545e-13
1.39948e-13
1.42343e-13
1.44727e-13
1.47093e-13
1.49436e-13
1.51748e-13
1.54022e-13
1.56251e-13
1.58425e-13
1.60535e-13
1.6257e-13
1.64519e-13
1.66368e-13
1.68106e-13
1.69717e-13
1.71186e-13
1.72496e-13
1.7363e-13
1.74571e-13
1.753e-13
1.758e-13
1.76056e-13
)
;
    }
}


// ************************************************************************* //
