/*--------------------------------*- C++ -*----------------------------------*\
  =========                 |
  \\      /  F ield         | OpenFOAM: The Open Source CFD Toolbox
   \\    /   O peration     | Website:  https://openfoam.org
    \\  /    A nd           | Version:  dev
     \\/     M anipulation  |
\*---------------------------------------------------------------------------*/
FoamFile
{
    format      ascii;
    class       volScalarField;
    location    "0.82";
    object      N1;
}
// * * * * * * * * * * * * * * * * * * * * * * * * * * * * * * * * * * * * * //

dimensions      [0 0 0 0 0 0 0];

internalField   nonuniform List<scalar> 
8000
(
1.29398e-19
4.12242e-19
7.23516e-19
1.06192e-18
1.4277e-18
1.82212e-18
2.24644e-18
2.70196e-18
3.19017e-18
3.71265e-18
4.27112e-18
4.86735e-18
5.5032e-18
6.18058e-18
6.90146e-18
7.66783e-18
8.48174e-18
9.34527e-18
1.02605e-17
1.12297e-17
1.22549e-17
1.33384e-17
1.44825e-17
1.56894e-17
1.69615e-17
1.83013e-17
1.97112e-17
2.11937e-17
2.27513e-17
2.43867e-17
2.61025e-17
2.79015e-17
2.97865e-17
3.17604e-17
3.38261e-17
3.59866e-17
3.82449e-17
4.06044e-17
4.30681e-17
4.56394e-17
4.83217e-17
5.11184e-17
5.40332e-17
5.70697e-17
6.02317e-17
6.35229e-17
6.69473e-17
7.0509e-17
7.42122e-17
7.8061e-17
8.20599e-17
8.62133e-17
9.05259e-17
9.50023e-17
9.96475e-17
1.04466e-16
1.09464e-16
1.14646e-16
1.20017e-16
1.25584e-16
1.31351e-16
1.37324e-16
1.43511e-16
1.49916e-16
1.56546e-16
1.63408e-16
1.70508e-16
1.77854e-16
1.85452e-16
1.9331e-16
2.01435e-16
2.09835e-16
2.18519e-16
2.27493e-16
2.36766e-16
2.46348e-16
2.56246e-16
2.66471e-16
2.77031e-16
2.87937e-16
2.99197e-16
3.10823e-16
3.22824e-16
3.35213e-16
3.47998e-16
3.61193e-16
3.74809e-16
3.88859e-16
4.03353e-16
4.18306e-16
4.3373e-16
4.49639e-16
4.66048e-16
4.82969e-16
5.00419e-16
5.18411e-16
5.36963e-16
5.56089e-16
5.75806e-16
5.96132e-16
6.17084e-16
6.38679e-16
6.60936e-16
6.83875e-16
7.07514e-16
7.31874e-16
7.56975e-16
7.82839e-16
8.09487e-16
8.36942e-16
8.65228e-16
8.94367e-16
9.24384e-16
9.55305e-16
9.87155e-16
1.01996e-15
1.05375e-15
1.08855e-15
1.12439e-15
1.1613e-15
1.19931e-15
1.23845e-15
1.27875e-15
1.32025e-15
1.36298e-15
1.40698e-15
1.45228e-15
1.49892e-15
1.54694e-15
1.59637e-15
1.64726e-15
1.69964e-15
1.75357e-15
1.80908e-15
1.86621e-15
1.92502e-15
1.98556e-15
2.04786e-15
2.11199e-15
2.17798e-15
2.24591e-15
2.31581e-15
2.38774e-15
2.46177e-15
2.53794e-15
2.61633e-15
2.69699e-15
2.77999e-15
2.86539e-15
2.95326e-15
3.04367e-15
3.13669e-15
3.23239e-15
3.33085e-15
3.43215e-15
3.53635e-15
3.64355e-15
3.75383e-15
3.86728e-15
3.98397e-15
4.10401e-15
4.22748e-15
4.35448e-15
4.48511e-15
4.61946e-15
4.75764e-15
4.89976e-15
5.04593e-15
5.19625e-15
5.35083e-15
5.50981e-15
5.67329e-15
5.84141e-15
6.01428e-15
6.19204e-15
6.37482e-15
6.56276e-15
6.756e-15
6.95468e-15
7.15896e-15
7.36898e-15
7.58489e-15
7.80687e-15
8.03507e-15
8.26966e-15
8.51082e-15
8.75872e-15
9.01354e-15
9.27547e-15
9.5447e-15
9.82143e-15
1.01059e-14
1.03982e-14
1.06986e-14
1.10074e-14
1.13247e-14
1.16508e-14
1.1986e-14
1.23304e-14
1.26842e-14
1.30479e-14
1.34215e-14
1.38054e-14
1.41999e-14
1.46052e-14
1.50216e-14
1.54494e-14
1.58888e-14
1.63403e-14
1.68042e-14
1.72806e-14
1.777e-14
1.82728e-14
1.87892e-14
1.93195e-14
1.98643e-14
2.04238e-14
2.09984e-14
2.15886e-14
2.21946e-14
2.2817e-14
2.34561e-14
2.41124e-14
2.47863e-14
2.54783e-14
2.61887e-14
2.69182e-14
2.76671e-14
2.8436e-14
2.92254e-14
3.00357e-14
3.08676e-14
3.17215e-14
3.25981e-14
3.34978e-14
3.44213e-14
3.53691e-14
3.63419e-14
3.73403e-14
3.83649e-14
3.94163e-14
4.04953e-14
4.16026e-14
4.27387e-14
4.39044e-14
4.51005e-14
4.63277e-14
4.75868e-14
4.88785e-14
5.02036e-14
5.15629e-14
5.29573e-14
5.43877e-14
5.58548e-14
5.73596e-14
5.8903e-14
6.04859e-14
6.21093e-14
6.3774e-14
6.54812e-14
6.72318e-14
6.90269e-14
7.08674e-14
7.27546e-14
7.46894e-14
7.6673e-14
7.87066e-14
8.07912e-14
8.29282e-14
8.51187e-14
8.7364e-14
8.96653e-14
9.2024e-14
9.44413e-14
9.69186e-14
9.94573e-14
1.02059e-13
1.04725e-13
1.07456e-13
1.10255e-13
1.13122e-13
1.16059e-13
1.19069e-13
1.22152e-13
1.2531e-13
1.28544e-13
1.31857e-13
1.35251e-13
1.38726e-13
1.42285e-13
1.4593e-13
1.49662e-13
1.53484e-13
1.57397e-13
1.61404e-13
1.65506e-13
1.69705e-13
1.74004e-13
1.78404e-13
1.82909e-13
1.87519e-13
1.92238e-13
1.97067e-13
2.02009e-13
2.07066e-13
2.12241e-13
2.17535e-13
2.22953e-13
2.28495e-13
2.34165e-13
2.39965e-13
2.45898e-13
2.51966e-13
2.58173e-13
2.6452e-13
2.71011e-13
2.77648e-13
2.84435e-13
2.91374e-13
2.98468e-13
3.0572e-13
3.13133e-13
3.2071e-13
3.28454e-13
3.36368e-13
3.44455e-13
3.52719e-13
3.61161e-13
3.69787e-13
3.78598e-13
3.87597e-13
3.96789e-13
4.06176e-13
4.15761e-13
4.25547e-13
4.35538e-13
4.45737e-13
4.56146e-13
4.66768e-13
4.77608e-13
4.88667e-13
4.99948e-13
5.11454e-13
5.23188e-13
5.35153e-13
5.4735e-13
5.59783e-13
5.72453e-13
5.85362e-13
5.98512e-13
6.11904e-13
6.2554e-13
6.39422e-13
6.53548e-13
6.67921e-13
6.8254e-13
6.97404e-13
7.12512e-13
7.27864e-13
7.43457e-13
7.59289e-13
7.75356e-13
7.91654e-13
8.08179e-13
8.24925e-13
8.41885e-13
8.59052e-13
8.76416e-13
8.93967e-13
9.11694e-13
9.29584e-13
9.47621e-13
9.65789e-13
9.84069e-13
1.00244e-12
1.02088e-12
1.03936e-12
1.05786e-12
1.07634e-12
1.09476e-12
1.11309e-12
1.13129e-12
1.14931e-12
1.16709e-12
1.18458e-12
1.20173e-12
1.21845e-12
1.23467e-12
1.25032e-12
1.26531e-12
1.27954e-12
1.2929e-12
1.30529e-12
1.31659e-12
1.32666e-12
1.33538e-12
1.34262e-12
1.34822e-12
1.35207e-12
1.35404e-12
1.2676e-19
4.06366e-19
7.15013e-19
1.05227e-18
1.4181e-18
1.81336e-18
2.23916e-18
2.69675e-18
3.18759e-18
3.71328e-18
4.27553e-18
4.87618e-18
5.51709e-18
6.20024e-18
6.92763e-18
7.7013e-18
8.52336e-18
9.39593e-18
1.03212e-17
1.13013e-17
1.23386e-17
1.34353e-17
1.45938e-17
1.58164e-17
1.71056e-17
1.84638e-17
1.98936e-17
2.13976e-17
2.29784e-17
2.46386e-17
2.63812e-17
2.82088e-17
3.01244e-17
3.2131e-17
3.42316e-17
3.64293e-17
3.87273e-17
4.11289e-17
4.36373e-17
4.6256e-17
4.89886e-17
5.18386e-17
5.48097e-17
5.79057e-17
6.11304e-17
6.44879e-17
6.79822e-17
7.16175e-17
7.5398e-17
7.93282e-17
8.34126e-17
8.76559e-17
9.20627e-17
9.66379e-17
1.01387e-16
1.06314e-16
1.11425e-16
1.16726e-16
1.22221e-16
1.27918e-16
1.3382e-16
1.39935e-16
1.46269e-16
1.52829e-16
1.5962e-16
1.66649e-16
1.73924e-16
1.81451e-16
1.89238e-16
1.97293e-16
2.05622e-16
2.14235e-16
2.23139e-16
2.32343e-16
2.41854e-16
2.51684e-16
2.61839e-16
2.72331e-16
2.83167e-16
2.9436e-16
3.05917e-16
3.17851e-16
3.30172e-16
3.42892e-16
3.5602e-16
3.6957e-16
3.83554e-16
3.97984e-16
4.12872e-16
4.28232e-16
4.44078e-16
4.60424e-16
4.77283e-16
4.9467e-16
5.12602e-16
5.31093e-16
5.50159e-16
5.69818e-16
5.90085e-16
6.10979e-16
6.32517e-16
6.54718e-16
6.77601e-16
7.01185e-16
7.25491e-16
7.5054e-16
7.76351e-16
8.02949e-16
8.30354e-16
8.5859e-16
8.8768e-16
9.1765e-16
9.48525e-16
9.8033e-16
1.01309e-15
1.04684e-15
1.0816e-15
1.11739e-15
1.15426e-15
1.19224e-15
1.23134e-15
1.27161e-15
1.31308e-15
1.35578e-15
1.39975e-15
1.44502e-15
1.49163e-15
1.53962e-15
1.58903e-15
1.6399e-15
1.69226e-15
1.74617e-15
1.80167e-15
1.85879e-15
1.9176e-15
1.97812e-15
2.04042e-15
2.10455e-15
2.17054e-15
2.23847e-15
2.30837e-15
2.38032e-15
2.45436e-15
2.53055e-15
2.60896e-15
2.68965e-15
2.77267e-15
2.85811e-15
2.94601e-15
3.03646e-15
3.12953e-15
3.22528e-15
3.32379e-15
3.42515e-15
3.52942e-15
3.63669e-15
3.74705e-15
3.86057e-15
3.97736e-15
4.09749e-15
4.22106e-15
4.34817e-15
4.47891e-15
4.61339e-15
4.75171e-15
4.89397e-15
5.04028e-15
5.19076e-15
5.34552e-15
5.50467e-15
5.66834e-15
5.83666e-15
6.00974e-15
6.18772e-15
6.37074e-15
6.55892e-15
6.75242e-15
6.95138e-15
7.15594e-15
7.36626e-15
7.58249e-15
7.8048e-15
8.03335e-15
8.26831e-15
8.50985e-15
8.75815e-15
9.01339e-15
9.27577e-15
9.54546e-15
9.82267e-15
1.01076e-14
1.04005e-14
1.07015e-14
1.10108e-14
1.13288e-14
1.16555e-14
1.19913e-14
1.23364e-14
1.2691e-14
1.30554e-14
1.34298e-14
1.38145e-14
1.42098e-14
1.4616e-14
1.50333e-14
1.54621e-14
1.59026e-14
1.63552e-14
1.68201e-14
1.72977e-14
1.77883e-14
1.82923e-14
1.881e-14
1.93417e-14
1.98879e-14
2.04489e-14
2.1025e-14
2.16167e-14
2.22245e-14
2.28485e-14
2.34895e-14
2.41476e-14
2.48234e-14
2.55174e-14
2.623e-14
2.69616e-14
2.77128e-14
2.8484e-14
2.92758e-14
3.00887e-14
3.09232e-14
3.17799e-14
3.26593e-14
3.3562e-14
3.44885e-14
3.54395e-14
3.64156e-14
3.74175e-14
3.84456e-14
3.95008e-14
4.05837e-14
4.16949e-14
4.28351e-14
4.40052e-14
4.52058e-14
4.64376e-14
4.77014e-14
4.89981e-14
5.03284e-14
5.16931e-14
5.3093e-14
5.45291e-14
5.60022e-14
5.75132e-14
5.9063e-14
6.06526e-14
6.22828e-14
6.39547e-14
6.56693e-14
6.74275e-14
6.92305e-14
7.10793e-14
7.29749e-14
7.49186e-14
7.69113e-14
7.89543e-14
8.10488e-14
8.31959e-14
8.53969e-14
8.7653e-14
8.99655e-14
9.23358e-14
9.47651e-14
9.72549e-14
9.98065e-14
1.02421e-13
1.05101e-13
1.07847e-13
1.1066e-13
1.13542e-13
1.16496e-13
1.19521e-13
1.22621e-13
1.25796e-13
1.29049e-13
1.32381e-13
1.35794e-13
1.39289e-13
1.42869e-13
1.46535e-13
1.50289e-13
1.54134e-13
1.5807e-13
1.62101e-13
1.66228e-13
1.70453e-13
1.74779e-13
1.79207e-13
1.8374e-13
1.88379e-13
1.93128e-13
1.97989e-13
2.02964e-13
2.08054e-13
2.13264e-13
2.18594e-13
2.24049e-13
2.29629e-13
2.35339e-13
2.41179e-13
2.47154e-13
2.53266e-13
2.59517e-13
2.65911e-13
2.7245e-13
2.79136e-13
2.85974e-13
2.92966e-13
3.00114e-13
3.07422e-13
3.14893e-13
3.2253e-13
3.30336e-13
3.38314e-13
3.46467e-13
3.54799e-13
3.63312e-13
3.72011e-13
3.80897e-13
3.89975e-13
3.99247e-13
4.08717e-13
4.18388e-13
4.28263e-13
4.38347e-13
4.4864e-13
4.59148e-13
4.69873e-13
4.80818e-13
4.91987e-13
5.03382e-13
5.15006e-13
5.26862e-13
5.38953e-13
5.51282e-13
5.6385e-13
5.76662e-13
5.89718e-13
6.0302e-13
6.16572e-13
6.30373e-13
6.44426e-13
6.58732e-13
6.73291e-13
6.88104e-13
7.03171e-13
7.18491e-13
7.34063e-13
7.49887e-13
7.6596e-13
7.8228e-13
7.98843e-13
8.15645e-13
8.32681e-13
8.49946e-13
8.67433e-13
8.85133e-13
9.03038e-13
9.21137e-13
9.39419e-13
9.5787e-13
9.76475e-13
9.95216e-13
1.01407e-12
1.03303e-12
1.05206e-12
1.07113e-12
1.09022e-12
1.1093e-12
1.12832e-12
1.14725e-12
1.16605e-12
1.18466e-12
1.20304e-12
1.22112e-12
1.23884e-12
1.25614e-12
1.27293e-12
1.28914e-12
1.30467e-12
1.31942e-12
1.33329e-12
1.34616e-12
1.35791e-12
1.3684e-12
1.37751e-12
1.38508e-12
1.39096e-12
1.39501e-12
1.3971e-12
1.24387e-19
3.99058e-19
7.01981e-19
1.03405e-18
1.39575e-18
1.7878e-18
2.21115e-18
2.66699e-18
3.15668e-18
3.6818e-18
4.24405e-18
4.84524e-18
5.48727e-18
6.17212e-18
6.9018e-18
7.67841e-18
8.50407e-18
9.38094e-18
1.03112e-17
1.12972e-17
1.23411e-17
1.34454e-17
1.46123e-17
1.58443e-17
1.71439e-17
1.85137e-17
1.99562e-17
2.14741e-17
2.307e-17
2.47469e-17
2.65074e-17
2.83546e-17
3.02913e-17
3.23206e-17
3.44457e-17
3.66698e-17
3.8996e-17
4.14278e-17
4.39686e-17
4.66218e-17
4.93912e-17
5.22804e-17
5.52932e-17
5.84335e-17
6.17052e-17
6.51124e-17
6.86593e-17
7.23503e-17
7.61896e-17
8.01819e-17
8.43318e-17
8.8644e-17
9.31234e-17
9.7775e-17
1.02604e-16
1.07616e-16
1.12815e-16
1.18209e-16
1.23801e-16
1.29599e-16
1.35608e-16
1.41835e-16
1.48286e-16
1.54967e-16
1.61885e-16
1.69047e-16
1.7646e-16
1.84132e-16
1.9207e-16
2.00281e-16
2.08774e-16
2.17557e-16
2.26638e-16
2.36025e-16
2.45729e-16
2.55757e-16
2.66119e-16
2.76825e-16
2.87885e-16
2.99309e-16
3.11107e-16
3.2329e-16
3.3587e-16
3.48857e-16
3.62264e-16
3.76102e-16
3.90384e-16
4.05122e-16
4.20331e-16
4.36022e-16
4.52211e-16
4.68912e-16
4.86138e-16
5.03906e-16
5.22231e-16
5.41128e-16
5.60615e-16
5.80708e-16
6.01425e-16
6.22783e-16
6.44801e-16
6.67497e-16
6.90892e-16
7.15006e-16
7.39858e-16
7.6547e-16
7.91864e-16
8.19063e-16
8.47088e-16
8.75965e-16
9.05717e-16
9.36369e-16
9.67947e-16
1.00048e-15
1.03399e-15
1.06851e-15
1.10406e-15
1.14068e-15
1.1784e-15
1.21725e-15
1.25725e-15
1.29845e-15
1.34088e-15
1.38457e-15
1.42955e-15
1.47587e-15
1.52357e-15
1.57267e-15
1.62323e-15
1.67528e-15
1.72886e-15
1.78403e-15
1.84082e-15
1.89928e-15
1.95945e-15
2.02139e-15
2.08515e-15
2.15077e-15
2.21832e-15
2.28783e-15
2.35938e-15
2.43301e-15
2.50879e-15
2.58678e-15
2.66703e-15
2.74961e-15
2.83459e-15
2.92203e-15
3.01201e-15
3.10459e-15
3.19985e-15
3.29786e-15
3.3987e-15
3.50245e-15
3.60918e-15
3.71899e-15
3.83196e-15
3.94817e-15
4.06772e-15
4.19069e-15
4.31719e-15
4.44731e-15
4.58115e-15
4.71882e-15
4.86042e-15
5.00605e-15
5.15584e-15
5.30989e-15
5.46832e-15
5.63125e-15
5.79882e-15
5.97113e-15
6.14833e-15
6.33054e-15
6.51791e-15
6.71058e-15
6.90868e-15
7.11237e-15
7.32181e-15
7.53714e-15
7.75853e-15
7.98614e-15
8.22013e-15
8.4607e-15
8.708e-15
8.96223e-15
9.22356e-15
9.4922e-15
9.76833e-15
1.00522e-14
1.03439e-14
1.06438e-14
1.0952e-14
1.12687e-14
1.15943e-14
1.19288e-14
1.22726e-14
1.2626e-14
1.29891e-14
1.33622e-14
1.37456e-14
1.41395e-14
1.45443e-14
1.49602e-14
1.53876e-14
1.58266e-14
1.62777e-14
1.67411e-14
1.72172e-14
1.77062e-14
1.82086e-14
1.87247e-14
1.92548e-14
1.97994e-14
2.03587e-14
2.09331e-14
2.15231e-14
2.21291e-14
2.27514e-14
2.33905e-14
2.40468e-14
2.47208e-14
2.54129e-14
2.61236e-14
2.68533e-14
2.76026e-14
2.83719e-14
2.91617e-14
2.99726e-14
3.08051e-14
3.16597e-14
3.2537e-14
3.34376e-14
3.43621e-14
3.5311e-14
3.6285e-14
3.72847e-14
3.83107e-14
3.93637e-14
4.04444e-14
4.15534e-14
4.26915e-14
4.38594e-14
4.50577e-14
4.62873e-14
4.7549e-14
4.88434e-14
5.01715e-14
5.15339e-14
5.29317e-14
5.43656e-14
5.58365e-14
5.73453e-14
5.88929e-14
6.04803e-14
6.21084e-14
6.37782e-14
6.54907e-14
6.72469e-14
6.90479e-14
7.08947e-14
7.27884e-14
7.47301e-14
7.67209e-14
7.87621e-14
8.08548e-14
8.30002e-14
8.51996e-14
8.74542e-14
8.97652e-14
9.21341e-14
9.45621e-14
9.70506e-14
9.96011e-14
1.02215e-13
1.04893e-13
1.07638e-13
1.10451e-13
1.13333e-13
1.16286e-13
1.19311e-13
1.22411e-13
1.25586e-13
1.28839e-13
1.32172e-13
1.35585e-13
1.39081e-13
1.42662e-13
1.46329e-13
1.50085e-13
1.53931e-13
1.5787e-13
1.61903e-13
1.66033e-13
1.70261e-13
1.7459e-13
1.79021e-13
1.83558e-13
1.88202e-13
1.92956e-13
1.97822e-13
2.02802e-13
2.07898e-13
2.13114e-13
2.18452e-13
2.23914e-13
2.29502e-13
2.3522e-13
2.4107e-13
2.47055e-13
2.53177e-13
2.5944e-13
2.65845e-13
2.72396e-13
2.79097e-13
2.85948e-13
2.92955e-13
3.00119e-13
3.07444e-13
3.14933e-13
3.22589e-13
3.30415e-13
3.38414e-13
3.4659e-13
3.54945e-13
3.63484e-13
3.72208e-13
3.81123e-13
3.9023e-13
3.99533e-13
4.09036e-13
4.18741e-13
4.28653e-13
4.38775e-13
4.49109e-13
4.5966e-13
4.7043e-13
4.81423e-13
4.92641e-13
5.04089e-13
5.15769e-13
5.27685e-13
5.39838e-13
5.52233e-13
5.64871e-13
5.77756e-13
5.9089e-13
6.04275e-13
6.17913e-13
6.31807e-13
6.45958e-13
6.60367e-13
6.75035e-13
6.89964e-13
7.05154e-13
7.20605e-13
7.36316e-13
7.52287e-13
7.68517e-13
7.85003e-13
8.01743e-13
8.18733e-13
8.3597e-13
8.53449e-13
8.71163e-13
8.89106e-13
9.07271e-13
9.25647e-13
9.44224e-13
9.62991e-13
9.81933e-13
1.00104e-12
1.02028e-12
1.03965e-12
1.05912e-12
1.07867e-12
1.09828e-12
1.1179e-12
1.13751e-12
1.15707e-12
1.17655e-12
1.19589e-12
1.21506e-12
1.23398e-12
1.25262e-12
1.27089e-12
1.28874e-12
1.30607e-12
1.32282e-12
1.33888e-12
1.35415e-12
1.36854e-12
1.3819e-12
1.39413e-12
1.40508e-12
1.4146e-12
1.42255e-12
1.42875e-12
1.43305e-12
1.43529e-12
1.22026e-19
3.91403e-19
6.88027e-19
1.01344e-18
1.36875e-18
1.75492e-18
2.17298e-18
2.62412e-18
3.10972e-18
3.63131e-18
4.19059e-18
4.78934e-18
5.42945e-18
6.11291e-18
6.84172e-18
7.61799e-18
8.44384e-18
9.32146e-18
1.02531e-17
1.1241e-17
1.22874e-17
1.33949e-17
1.45657e-17
1.58024e-17
1.71075e-17
1.84835e-17
1.99332e-17
2.14591e-17
2.30642e-17
2.47511e-17
2.65229e-17
2.83824e-17
3.03328e-17
3.2377e-17
3.45184e-17
3.67601e-17
3.91055e-17
4.15581e-17
4.41213e-17
4.67987e-17
4.95941e-17
5.25111e-17
5.55537e-17
5.87259e-17
6.20316e-17
6.54751e-17
6.90607e-17
7.27926e-17
7.66755e-17
8.0714e-17
8.49127e-17
8.92766e-17
9.38106e-17
9.85199e-17
1.0341e-16
1.08485e-16
1.13752e-16
1.19217e-16
1.24884e-16
1.3076e-16
1.36851e-16
1.43164e-16
1.49705e-16
1.5648e-16
1.63497e-16
1.70763e-16
1.78284e-16
1.86069e-16
1.94124e-16
2.02459e-16
2.1108e-16
2.19996e-16
2.29217e-16
2.3875e-16
2.48604e-16
2.5879e-16
2.69316e-16
2.80192e-16
2.91429e-16
3.03036e-16
3.15025e-16
3.27407e-16
3.40192e-16
3.53393e-16
3.67021e-16
3.81089e-16
3.9561e-16
4.10595e-16
4.2606e-16
4.42017e-16
4.58481e-16
4.75466e-16
4.92987e-16
5.1106e-16
5.29701e-16
5.48925e-16
5.6875e-16
5.89192e-16
6.1027e-16
6.32002e-16
6.54407e-16
6.77503e-16
7.01311e-16
7.25851e-16
7.51144e-16
7.77211e-16
8.04076e-16
8.3176e-16
8.60287e-16
8.89681e-16
9.19968e-16
9.51172e-16
9.83319e-16
1.01644e-15
1.05056e-15
1.0857e-15
1.1219e-15
1.15919e-15
1.19759e-15
1.23715e-15
1.27788e-15
1.31983e-15
1.36304e-15
1.40753e-15
1.45334e-15
1.50051e-15
1.54908e-15
1.59909e-15
1.65058e-15
1.70359e-15
1.75817e-15
1.81435e-15
1.8722e-15
1.93174e-15
1.99303e-15
2.05612e-15
2.12106e-15
2.18791e-15
2.25671e-15
2.32752e-15
2.4004e-15
2.47541e-15
2.5526e-15
2.63204e-15
2.71379e-15
2.79792e-15
2.88449e-15
2.97358e-15
3.06524e-15
3.15956e-15
3.2566e-15
3.35646e-15
3.45919e-15
3.56489e-15
3.67363e-15
3.78551e-15
3.9006e-15
4.019e-15
4.1408e-15
4.26609e-15
4.39498e-15
4.52756e-15
4.66393e-15
4.80419e-15
4.94847e-15
5.09686e-15
5.24948e-15
5.40644e-15
5.56788e-15
5.7339e-15
5.90463e-15
6.08021e-15
6.26077e-15
6.44644e-15
6.63737e-15
6.83369e-15
7.03556e-15
7.24313e-15
7.45654e-15
7.67597e-15
7.90157e-15
8.13351e-15
8.37196e-15
8.61711e-15
8.86912e-15
9.12819e-15
9.39451e-15
9.66827e-15
9.94967e-15
1.02389e-14
1.05362e-14
1.08418e-14
1.11559e-14
1.14787e-14
1.18105e-14
1.21514e-14
1.25018e-14
1.28619e-14
1.3232e-14
1.36122e-14
1.4003e-14
1.44045e-14
1.4817e-14
1.52409e-14
1.56764e-14
1.61239e-14
1.65836e-14
1.7056e-14
1.75412e-14
1.80396e-14
1.85517e-14
1.90777e-14
1.9618e-14
2.0173e-14
2.07431e-14
2.13286e-14
2.19299e-14
2.25476e-14
2.31819e-14
2.38333e-14
2.45023e-14
2.51893e-14
2.58947e-14
2.66191e-14
2.73629e-14
2.81266e-14
2.89108e-14
2.97159e-14
3.05425e-14
3.13911e-14
3.22622e-14
3.31565e-14
3.40746e-14
3.50169e-14
3.59842e-14
3.69771e-14
3.79962e-14
3.90421e-14
4.01155e-14
4.12172e-14
4.23477e-14
4.35079e-14
4.46984e-14
4.59201e-14
4.71736e-14
4.84597e-14
4.97794e-14
5.11333e-14
5.25223e-14
5.39473e-14
5.54091e-14
5.69087e-14
5.84469e-14
6.00247e-14
6.16431e-14
6.33029e-14
6.50053e-14
6.67513e-14
6.85418e-14
7.03779e-14
7.22608e-14
7.41916e-14
7.61713e-14
7.82011e-14
8.02823e-14
8.2416e-14
8.46034e-14
8.68459e-14
8.91447e-14
9.15011e-14
9.39164e-14
9.63921e-14
9.89295e-14
1.0153e-13
1.04195e-13
1.06927e-13
1.09725e-13
1.12593e-13
1.15532e-13
1.18543e-13
1.21628e-13
1.24789e-13
1.28027e-13
1.31344e-13
1.34742e-13
1.38223e-13
1.41788e-13
1.4544e-13
1.4918e-13
1.5301e-13
1.56932e-13
1.60949e-13
1.65062e-13
1.69273e-13
1.73585e-13
1.78e-13
1.82519e-13
1.87146e-13
1.91883e-13
1.96731e-13
2.01693e-13
2.06772e-13
2.11971e-13
2.1729e-13
2.22734e-13
2.28305e-13
2.34005e-13
2.39837e-13
2.45804e-13
2.51908e-13
2.58153e-13
2.6454e-13
2.71074e-13
2.77756e-13
2.84591e-13
2.9158e-13
2.98727e-13
3.06035e-13
3.13507e-13
3.21147e-13
3.28956e-13
3.3694e-13
3.451e-13
3.5344e-13
3.61964e-13
3.70675e-13
3.79575e-13
3.8867e-13
3.97961e-13
4.07452e-13
4.17147e-13
4.2705e-13
4.37163e-13
4.4749e-13
4.58034e-13
4.68799e-13
4.79789e-13
4.91005e-13
5.02453e-13
5.14135e-13
5.26054e-13
5.38213e-13
5.50616e-13
5.63265e-13
5.76163e-13
5.89313e-13
6.02718e-13
6.16379e-13
6.303e-13
6.44482e-13
6.58926e-13
6.73635e-13
6.88609e-13
7.0385e-13
7.19358e-13
7.35134e-13
7.51176e-13
7.67484e-13
7.84057e-13
8.00894e-13
8.1799e-13
8.35344e-13
8.52951e-13
8.70807e-13
8.88905e-13
9.07238e-13
9.258e-13
9.4458e-13
9.63568e-13
9.82752e-13
1.00212e-12
1.02165e-12
1.04134e-12
1.06115e-12
1.08107e-12
1.10108e-12
1.12114e-12
1.14124e-12
1.16132e-12
1.18137e-12
1.20133e-12
1.22116e-12
1.24082e-12
1.26024e-12
1.27938e-12
1.29816e-12
1.31651e-12
1.33436e-12
1.35161e-12
1.36818e-12
1.38395e-12
1.39883e-12
1.41269e-12
1.42539e-12
1.43679e-12
1.44674e-12
1.45508e-12
1.46162e-12
1.46619e-12
1.46857e-12
1.19797e-19
3.84138e-19
6.74806e-19
9.93501e-19
1.34174e-18
1.72084e-18
2.13207e-18
2.57677e-18
3.05638e-18
3.57249e-18
4.12679e-18
4.72106e-18
5.35719e-18
6.03713e-18
6.76291e-18
7.53658e-18
8.3603e-18
9.23623e-18
1.01666e-17
1.11537e-17
1.21999e-17
1.33076e-17
1.44792e-17
1.57172e-17
1.70241e-17
1.84026e-17
1.98554e-17
2.13852e-17
2.29948e-17
2.46871e-17
2.64651e-17
2.83317e-17
3.029e-17
3.23433e-17
3.44947e-17
3.67475e-17
3.91052e-17
4.15713e-17
4.41493e-17
4.68428e-17
4.96557e-17
5.25917e-17
5.56549e-17
5.88492e-17
6.21787e-17
6.56478e-17
6.92608e-17
7.30221e-17
7.69363e-17
8.10081e-17
8.52424e-17
8.9644e-17
9.42181e-17
9.89698e-17
1.03905e-16
1.09028e-16
1.14345e-16
1.19862e-16
1.25585e-16
1.3152e-16
1.37674e-16
1.44051e-16
1.50661e-16
1.57508e-16
1.646e-16
1.71944e-16
1.79548e-16
1.87419e-16
1.95565e-16
2.03994e-16
2.12714e-16
2.21734e-16
2.31062e-16
2.40707e-16
2.50679e-16
2.60986e-16
2.7164e-16
2.82648e-16
2.94023e-16
3.05774e-16
3.17912e-16
3.30448e-16
3.43394e-16
3.56763e-16
3.70564e-16
3.84813e-16
3.9952e-16
4.147e-16
4.30366e-16
4.46531e-16
4.63212e-16
4.80421e-16
4.98174e-16
5.16488e-16
5.35377e-16
5.5486e-16
5.74951e-16
5.9567e-16
6.17034e-16
6.39062e-16
6.61772e-16
6.85185e-16
7.0932e-16
7.34198e-16
7.5984e-16
7.86269e-16
8.13506e-16
8.41576e-16
8.70501e-16
9.00307e-16
9.31018e-16
9.62661e-16
9.95261e-16
1.02885e-15
1.06345e-15
1.09909e-15
1.1358e-15
1.17362e-15
1.21257e-15
1.25269e-15
1.29401e-15
1.33656e-15
1.38039e-15
1.42551e-15
1.47198e-15
1.51983e-15
1.56911e-15
1.61984e-15
1.67207e-15
1.72585e-15
1.78122e-15
1.83822e-15
1.8969e-15
1.95731e-15
2.01949e-15
2.0835e-15
2.14939e-15
2.21721e-15
2.28702e-15
2.35886e-15
2.43281e-15
2.50892e-15
2.58724e-15
2.66785e-15
2.7508e-15
2.83617e-15
2.92401e-15
3.0144e-15
3.10742e-15
3.20313e-15
3.30161e-15
3.40293e-15
3.50718e-15
3.61444e-15
3.7248e-15
3.83833e-15
3.95512e-15
4.07528e-15
4.19889e-15
4.32604e-15
4.45684e-15
4.59138e-15
4.72978e-15
4.87213e-15
5.01855e-15
5.16915e-15
5.32405e-15
5.48335e-15
5.64719e-15
5.81569e-15
5.98897e-15
6.16718e-15
6.35043e-15
6.53888e-15
6.73266e-15
6.93192e-15
7.13681e-15
7.34748e-15
7.5641e-15
7.78681e-15
8.0158e-15
8.25122e-15
8.49325e-15
8.74208e-15
8.99788e-15
9.26084e-15
9.53116e-15
9.80904e-15
1.00947e-14
1.03883e-14
1.06901e-14
1.10003e-14
1.13191e-14
1.16468e-14
1.19835e-14
1.23296e-14
1.26853e-14
1.30509e-14
1.34265e-14
1.38125e-14
1.42092e-14
1.46167e-14
1.50355e-14
1.54659e-14
1.5908e-14
1.63622e-14
1.68289e-14
1.73084e-14
1.7801e-14
1.8307e-14
1.88269e-14
1.93609e-14
1.99094e-14
2.04728e-14
2.10515e-14
2.1646e-14
2.22565e-14
2.28835e-14
2.35275e-14
2.41889e-14
2.48681e-14
2.55655e-14
2.62818e-14
2.70172e-14
2.77724e-14
2.85478e-14
2.9344e-14
3.01614e-14
3.10006e-14
3.18622e-14
3.27467e-14
3.36547e-14
3.45868e-14
3.55437e-14
3.65258e-14
3.75339e-14
3.85686e-14
3.96306e-14
4.07206e-14
4.18392e-14
4.29871e-14
4.41652e-14
4.5374e-14
4.66145e-14
4.78874e-14
4.91934e-14
5.05334e-14
5.19082e-14
5.33187e-14
5.47657e-14
5.62501e-14
5.77729e-14
5.93349e-14
6.09372e-14
6.25806e-14
6.42662e-14
6.5995e-14
6.7768e-14
6.95863e-14
7.1451e-14
7.33632e-14
7.53239e-14
7.73344e-14
7.93959e-14
8.15094e-14
8.36764e-14
8.58979e-14
8.81754e-14
9.051e-14
9.29032e-14
9.53563e-14
9.78707e-14
1.00448e-13
1.03089e-13
1.05796e-13
1.0857e-13
1.11413e-13
1.14326e-13
1.17311e-13
1.20369e-13
1.23502e-13
1.26713e-13
1.30002e-13
1.33371e-13
1.36823e-13
1.40358e-13
1.43979e-13
1.47689e-13
1.51487e-13
1.55378e-13
1.59362e-13
1.63443e-13
1.6762e-13
1.71898e-13
1.76279e-13
1.80763e-13
1.85355e-13
1.90055e-13
1.94866e-13
1.99792e-13
2.04833e-13
2.09993e-13
2.15274e-13
2.20678e-13
2.26209e-13
2.31868e-13
2.37659e-13
2.43584e-13
2.49646e-13
2.55848e-13
2.62192e-13
2.68682e-13
2.75321e-13
2.8211e-13
2.89054e-13
2.96156e-13
3.03418e-13
3.10843e-13
3.18435e-13
3.26198e-13
3.34133e-13
3.42246e-13
3.50538e-13
3.59013e-13
3.67674e-13
3.76526e-13
3.85571e-13
3.94813e-13
4.04255e-13
4.13901e-13
4.23754e-13
4.33817e-13
4.44095e-13
4.54591e-13
4.65307e-13
4.76249e-13
4.87418e-13
4.98819e-13
5.10455e-13
5.22329e-13
5.34445e-13
5.46805e-13
5.59413e-13
5.72271e-13
5.85384e-13
5.98753e-13
6.12381e-13
6.2627e-13
6.40424e-13
6.54844e-13
6.69531e-13
6.84488e-13
6.99716e-13
7.15215e-13
7.30987e-13
7.47031e-13
7.63348e-13
7.79937e-13
7.96796e-13
8.13924e-13
8.31318e-13
8.48975e-13
8.66891e-13
8.85062e-13
9.03481e-13
9.22142e-13
9.41037e-13
9.60157e-13
9.79491e-13
9.99028e-13
1.01875e-12
1.03865e-12
1.05871e-12
1.0789e-12
1.09921e-12
1.11961e-12
1.14007e-12
1.16056e-12
1.18106e-12
1.20152e-12
1.2219e-12
1.24217e-12
1.26226e-12
1.28212e-12
1.3017e-12
1.32093e-12
1.33974e-12
1.35804e-12
1.37576e-12
1.39279e-12
1.40903e-12
1.42437e-12
1.43868e-12
1.45183e-12
1.46367e-12
1.47403e-12
1.48275e-12
1.48962e-12
1.49444e-12
1.49698e-12
1.17824e-19
3.77685e-19
6.63064e-19
9.75633e-19
1.31712e-18
1.68912e-18
2.09318e-18
2.53085e-18
3.00372e-18
3.51345e-18
4.06179e-18
4.65055e-18
5.2816e-18
5.95688e-18
6.6784e-18
7.44823e-18
8.26847e-18
9.14129e-18
1.00689e-17
1.10537e-17
1.20979e-17
1.32039e-17
1.43742e-17
1.56113e-17
1.69178e-17
1.82963e-17
1.97496e-17
2.12804e-17
2.28916e-17
2.4586e-17
2.63666e-17
2.82366e-17
3.0199e-17
3.2257e-17
3.4414e-17
3.66732e-17
3.90382e-17
4.15124e-17
4.40995e-17
4.68032e-17
4.96273e-17
5.25757e-17
5.56523e-17
5.88613e-17
6.22069e-17
6.56934e-17
6.93251e-17
7.31067e-17
7.70426e-17
8.11378e-17
8.53971e-17
8.98254e-17
9.44281e-17
9.92102e-17
1.04177e-16
1.09335e-16
1.14689e-16
1.20244e-16
1.26008e-16
1.31986e-16
1.38185e-16
1.44611e-16
1.51271e-16
1.58171e-16
1.65319e-16
1.72722e-16
1.80388e-16
1.88324e-16
1.96537e-16
2.05037e-16
2.13832e-16
2.22929e-16
2.32338e-16
2.42068e-16
2.52129e-16
2.62529e-16
2.73278e-16
2.84388e-16
2.95867e-16
3.07727e-16
3.19979e-16
3.32633e-16
3.45703e-16
3.59198e-16
3.73133e-16
3.8752e-16
4.0237e-16
4.17699e-16
4.3352e-16
4.49846e-16
4.66692e-16
4.84074e-16
5.02006e-16
5.20505e-16
5.39587e-16
5.59268e-16
5.79566e-16
6.00498e-16
6.22083e-16
6.4434e-16
6.67286e-16
6.90944e-16
7.15332e-16
7.40472e-16
7.66385e-16
7.93094e-16
8.20621e-16
8.48989e-16
8.78224e-16
9.08349e-16
9.3939e-16
9.71373e-16
1.00433e-15
1.03827e-15
1.07325e-15
1.10928e-15
1.14639e-15
1.18462e-15
1.224e-15
1.26456e-15
1.30633e-15
1.34935e-15
1.39366e-15
1.43928e-15
1.48627e-15
1.53465e-15
1.58446e-15
1.63576e-15
1.68857e-15
1.74295e-15
1.79894e-15
1.85657e-15
1.91591e-15
1.97699e-15
2.03987e-15
2.1046e-15
2.17123e-15
2.23981e-15
2.3104e-15
2.38306e-15
2.45784e-15
2.53481e-15
2.61402e-15
2.69554e-15
2.77943e-15
2.86576e-15
2.9546e-15
3.04602e-15
3.14009e-15
3.23689e-15
3.33649e-15
3.43896e-15
3.5444e-15
3.65289e-15
3.7645e-15
3.87933e-15
3.99746e-15
4.11899e-15
4.24401e-15
4.37262e-15
4.50492e-15
4.64101e-15
4.78099e-15
4.92498e-15
5.07308e-15
5.22541e-15
5.38209e-15
5.54323e-15
5.70896e-15
5.8794e-15
6.05468e-15
6.23494e-15
6.42031e-15
6.61093e-15
6.80696e-15
7.00852e-15
7.21578e-15
7.4289e-15
7.64802e-15
7.87331e-15
8.10495e-15
8.34311e-15
8.58795e-15
8.83967e-15
9.09844e-15
9.36447e-15
9.63793e-15
9.91905e-15
1.0208e-14
1.0505e-14
1.08103e-14
1.11242e-14
1.14467e-14
1.17782e-14
1.21189e-14
1.24691e-14
1.28289e-14
1.31987e-14
1.35788e-14
1.39693e-14
1.43706e-14
1.4783e-14
1.52067e-14
1.5642e-14
1.60893e-14
1.65489e-14
1.70211e-14
1.75062e-14
1.80046e-14
1.85166e-14
1.90426e-14
1.95829e-14
2.01379e-14
2.07079e-14
2.12935e-14
2.1895e-14
2.25127e-14
2.31472e-14
2.37988e-14
2.44679e-14
2.51552e-14
2.58609e-14
2.65856e-14
2.73298e-14
2.80939e-14
2.88786e-14
2.96842e-14
3.05113e-14
3.13605e-14
3.22323e-14
3.31274e-14
3.40462e-14
3.49895e-14
3.59577e-14
3.69516e-14
3.79717e-14
3.90188e-14
4.00935e-14
4.11965e-14
4.23284e-14
4.34901e-14
4.46823e-14
4.59057e-14
4.7161e-14
4.84491e-14
4.97708e-14
5.11269e-14
5.25183e-14
5.39457e-14
5.54101e-14
5.69124e-14
5.84536e-14
6.00344e-14
6.1656e-14
6.33193e-14
6.50252e-14
6.67749e-14
6.85694e-14
7.04097e-14
7.2297e-14
7.42323e-14
7.62168e-14
7.82517e-14
8.03382e-14
8.24774e-14
8.46707e-14
8.69192e-14
8.92244e-14
9.15875e-14
9.40098e-14
9.64928e-14
9.90379e-14
1.01646e-13
1.0432e-13
1.0706e-13
1.09868e-13
1.12745e-13
1.15694e-13
1.18716e-13
1.21811e-13
1.24983e-13
1.28233e-13
1.31563e-13
1.34973e-13
1.38467e-13
1.42046e-13
1.45712e-13
1.49467e-13
1.53313e-13
1.57252e-13
1.61285e-13
1.65416e-13
1.69645e-13
1.73976e-13
1.78411e-13
1.82951e-13
1.87599e-13
1.92358e-13
1.97229e-13
2.02216e-13
2.0732e-13
2.12544e-13
2.17891e-13
2.23363e-13
2.28962e-13
2.34693e-13
2.40556e-13
2.46555e-13
2.52693e-13
2.58973e-13
2.65397e-13
2.71968e-13
2.7869e-13
2.85565e-13
2.92596e-13
2.99787e-13
3.07141e-13
3.1466e-13
3.22349e-13
3.30209e-13
3.38245e-13
3.46461e-13
3.54858e-13
3.63441e-13
3.72213e-13
3.81177e-13
3.90337e-13
3.99697e-13
4.0926e-13
4.19029e-13
4.29008e-13
4.39201e-13
4.49611e-13
4.60242e-13
4.71097e-13
4.8218e-13
4.93494e-13
5.05042e-13
5.16829e-13
5.28858e-13
5.41131e-13
5.53652e-13
5.66425e-13
5.79452e-13
5.92737e-13
6.06282e-13
6.20089e-13
6.34163e-13
6.48504e-13
6.63116e-13
6.77999e-13
6.93156e-13
7.08588e-13
7.24297e-13
7.40282e-13
7.56544e-13
7.73083e-13
7.89899e-13
8.0699e-13
8.24355e-13
8.4199e-13
8.59894e-13
8.78062e-13
8.9649e-13
9.15171e-13
9.341e-13
9.53268e-13
9.72666e-13
9.92284e-13
1.01211e-12
1.03213e-12
1.05233e-12
1.0727e-12
1.0932e-12
1.11383e-12
1.13455e-12
1.15534e-12
1.17617e-12
1.19701e-12
1.21783e-12
1.23857e-12
1.25919e-12
1.27965e-12
1.29989e-12
1.31985e-12
1.33947e-12
1.35867e-12
1.37737e-12
1.39549e-12
1.41293e-12
1.42958e-12
1.44533e-12
1.46005e-12
1.4736e-12
1.48583e-12
1.49657e-12
1.50563e-12
1.5128e-12
1.51786e-12
1.52054e-12
1.16171e-19
3.72275e-19
6.53234e-19
9.60624e-19
1.29625e-18
1.66191e-18
2.05937e-18
2.4904e-18
2.95674e-18
3.46019e-18
4.00255e-18
4.58567e-18
5.21145e-18
5.88182e-18
6.59877e-18
7.36436e-18
8.18067e-18
9.04987e-18
9.97416e-18
1.09558e-17
1.19972e-17
1.31007e-17
1.42687e-17
1.55039e-17
1.68087e-17
1.81859e-17
1.96381e-17
2.11683e-17
2.27791e-17
2.44737e-17
2.62549e-17
2.81259e-17
3.00898e-17
3.21498e-17
3.43094e-17
3.65718e-17
3.89406e-17
4.14193e-17
4.40116e-17
4.67213e-17
4.95521e-17
5.2508e-17
5.55931e-17
5.88114e-17
6.21673e-17
6.5665e-17
6.93091e-17
7.3104e-17
7.70546e-17
8.11655e-17
8.54417e-17
8.98884e-17
9.45106e-17
9.93137e-17
1.04303e-16
1.09485e-16
1.14864e-16
1.20447e-16
1.2624e-16
1.32248e-16
1.38479e-16
1.44939e-16
1.51635e-16
1.58574e-16
1.65762e-16
1.73207e-16