/*--------------------------------*- C++ -*----------------------------------*\
  =========                 |
  \\      /  F ield         | OpenFOAM: The Open Source CFD Toolbox
   \\    /   O peration     | Website:  https://openfoam.org
    \\  /    A nd           | Version:  dev
     \\/     M anipulation  |
\*---------------------------------------------------------------------------*/
FoamFile
{
    format      ascii;
    class       volScalarField;
    location    "0.22";
    object      beta;
}
// * * * * * * * * * * * * * * * * * * * * * * * * * * * * * * * * * * * * * //

dimensions      [0 0 0 0 0 0 0];

internalField   uniform 0;

boundaryField
{
    frontAndBack
    {
        type            empty;
    }
    inlet
    {
        type            calculated;
        value           uniform 0;
    }
    outlet
    {
        type            calculated;
        value           uniform 0;
    }
    substrate
    {
        type            calculated;
        value           nonuniform List<scalar> 
400
(
0.00276609
0.00290569
0.00300811
0.00310174
0.00319072
0.00327541
0.00335681
0.00343581
0.00351303
0.00358893
0.00366385
0.00373804
0.00381171
0.00388502
0.00395807
0.00403096
0.00410374
0.00417646
0.00424915
0.00432183
0.00439449
0.00446714
0.00453978
0.00461238
0.00468493
0.00475741
0.00482981
0.0049021
0.00497425
0.00504624
0.00511806
0.00518966
0.00526104
0.00533216
0.005403
0.00547353
0.00554374
0.0056136
0.00568309
0.00575218
0.00582085
0.00588909
0.00595688
0.00602419
0.00609101
0.00615731
0.00622309
0.00628833
0.006353
0.00641711
0.00648062
0.00654354
0.00660584
0.00666752
0.00672856
0.00678896
0.0068487
0.00690778
0.00696619
0.00702392
0.00708096
0.00713731
0.00719296
0.00724791
0.00730216
0.00735569
0.00740851
0.00746062
0.007512
0.00756267
0.00761262
0.00766185
0.00771036
0.00775815
0.00780522
0.00785158
0.00789722
0.00794214
0.00798636
0.00802987
0.00807267
0.00811477
0.00815618
0.00819689
0.00823692
0.00827626
0.00831492
0.00835292
0.00839024
0.0084269
0.0084629
0.00849825
0.00853296
0.00856703
0.00860047
0.00863329
0.00866548
0.00869706
0.00872804
0.00875843
0.00878822
0.00881742
0.00884606
0.00887412
0.00890162
0.00892857
0.00895497
0.00898083
0.00900616
0.00903096
0.00905525
0.00907903
0.0091023
0.00912509
0.00914738
0.0091692
0.00919054
0.00921142
0.00923185
0.00925182
0.00927135
0.00929045
0.00930911
0.00932736
0.0093452
0.00936262
0.00937965
0.00939629
0.00941254
0.00942842
0.00944392
0.00945906
0.00947384
0.00948827
0.00950235
0.0095161
0.00952951
0.0095426
0.00955537
0.00956783
0.00957998
0.00959183
0.00960339
0.00961466
0.00962564
0.00963635
0.00964679
0.00965696
0.00966687
0.00967653
0.00968594
0.00969511
0.00970404
0.00971273
0.0097212
0.00972944
0.00973747
0.00974528
0.00975288
0.00976028
0.00976749
0.00977449
0.00978131
0.00978794
0.00979439
0.00980066
0.00980676
0.0098127
0.00981846
0.00982407
0.00982952
0.00983481
0.00983996
0.00984496
0.00984982
0.00985454
0.00985912
0.00986358
0.0098679
0.0098721
0.00987618
0.00988014
0.00988398
0.00988771
0.00989133
0.00989485
0.00989826
0.00990156
0.00990477
0.00990788
0.0099109
0.00991383
0.00991667
0.00991943
0.0099221
0.00992468
0.00992719
0.00992962
0.00993198
0.00993426
0.00993648
0.00993862
0.0099407
0.00994271
0.00994466
0.00994655
0.00994837
0.00995014
0.00995186
0.00995351
0.00995512
0.00995667
0.00995818
0.00995963
0.00996104
0.0099624
0.00996372
0.009965
0.00996623
0.00996743
0.00996858
0.00996969
0.00997077
0.00997182
0.00997282
0.0099738
0.00997474
0.00997565
0.00997653
0.00997738
0.0099782
0.009979
0.00997976
0.0099805
0.00998122
0.00998191
0.00998257
0.00998322
0.00998384
0.00998444
0.00998502
0.00998558
0.00998612
0.00998664
0.00998714
0.00998762
0.00998809
0.00998854
0.00998898
0.00998939
0.0099898
0.00999019
0.00999056
0.00999093
0.00999128
0.00999161
0.00999194
0.00999225
0.00999255
0.00999284
0.00999312
0.00999339
0.00999365
0.0099939
0.00999414
0.00999437
0.0099946
0.00999481
0.00999502
0.00999522
0.00999541
0.00999559
0.00999577
0.00999594
0.0099961
0.00999626
0.00999641
0.00999656
0.0099967
0.00999684
0.00999697
0.00999709
0.00999721
0.00999733
0.00999744
0.00999754
0.00999765
0.00999774
0.00999784
0.00999793
0.00999802
0.0099981
0.00999818
0.00999826
0.00999833
0.0099984
0.00999847
0.00999854
0.0099986
0.00999866
0.00999872
0.00999877
0.00999883
0.00999888
0.00999893
0.00999897
0.00999902
0.00999906
0.0099991
0.00999914
0.00999918
0.00999922
0.00999925
0.00999929
0.00999932
0.00999935
0.00999938
0.00999941
0.00999943
0.00999946
0.00999948
0.00999951
0.00999953
0.00999955
0.00999957
0.00999959
0.00999961
0.00999963
0.00999965
0.00999966
0.00999968
0.00999969
0.00999971
0.00999972
0.00999973
0.00999975
0.00999976
0.00999977
0.00999978
0.00999979
0.0099998
0.00999981
0.00999982
0.00999983
0.00999984
0.00999984
0.00999985
0.00999986
0.00999987
0.00999987
0.00999988
0.00999989
0.00999989
0.0099999
0.0099999
0.00999991
0.00999991
0.00999992
0.00999992
0.00999992
0.00999993
0.00999993
0.00999993
0.00999994
0.00999994
0.00999994
0.00999995
0.00999995
0.00999995
0.00999995
0.00999996
0.00999996
0.00999996
0.00999996
0.00999997
0.00999997
0.00999997
0.00999997
0.00999997
0.00999997
0.00999997
0.00999998
0.00999998
0.00999998
0.00999998
0.00999998
0.00999998
0.00999998
0.00999998
0.00999998
0.00999998
0.00999999
0.00999999
0.00999999
0.00999999
0.00999999
0.00999999
0.00999999
0.00999999
0.00999999
)
;
    }
    Wall
    {
        type            calculated;
        value           nonuniform List<scalar> 
400
(
0.00276609
0.00290569
0.0030081
0.00310173
0.00319071
0.00327542
0.00335682
0.00343583
0.00351305
0.00358896
0.00366387
0.00373807
0.00381174
0.00388504
0.00395809
0.00403098
0.00410376
0.00417648
0.00424917
0.00432184
0.00439451
0.00446716
0.00453979
0.00461239
0.00468494
0.00475742
0.00482981
0.0049021
0.00497425
0.00504624
0.00511806
0.00518966
0.00526104
0.00533215
0.00540299
0.00547353
0.00554373
0.00561359
0.00568307
0.00575216
0.00582084
0.00588908
0.00595686
0.00602417
0.00609099
0.0061573
0.00622308
0.00628831
0.00635299
0.00641709
0.00648061
0.00654352
0.00660582
0.0066675
0.00672854
0.00678894
0.00684868
0.00690776
0.00696617
0.0070239
0.00708094
0.00713729
0.00719294
0.00724789
0.00730213
0.00735567
0.00740849
0.00746059
0.00751198
0.00756265
0.0076126
0.00766183
0.00771034
0.00775813
0.0078052
0.00785155
0.00789719
0.00794212
0.00798633
0.00802984
0.00807265
0.00811475
0.00815616
0.00819687
0.0082369
0.00827624
0.0083149
0.00835289
0.00839022
0.00842688
0.00846288
0.00849823
0.00853294
0.00856701
0.00860045
0.00863327
0.00866546
0.00869705
0.00872803
0.00875841
0.0087882
0.00881741
0.00884604
0.0088741
0.0089016
0.00892855
0.00895495
0.00898081
0.00900614
0.00903094
0.00905523
0.00907901
0.00910229
0.00912507
0.00914737
0.00916918
0.00919053
0.00921141
0.00923183
0.0092518
0.00927134
0.00929043
0.0093091
0.00932735
0.00934518
0.00936261
0.00937964
0.00939628
0.00941253
0.0094284
0.00944391
0.00945905
0.00947383
0.00948825
0.00950234
0.00951609
0.0095295
0.00954259
0.00955536
0.00956782
0.00957997
0.00959182
0.00960338
0.00961465
0.00962563
0.00963634
0.00964678
0.00965695
0.00966687
0.00967652
0.00968593
0.0096951
0.00970403
0.00971272
0.00972119
0.00972943
0.00973746
0.00974527
0.00975288
0.00976028
0.00976748
0.00977449
0.0097813
0.00978794
0.00979439
0.00980066
0.00980676
0.00981269
0.00981846
0.00982406
0.00982951
0.00983481
0.00983995
0.00984496
0.00984981
0.00985453
0.00985912
0.00986357
0.0098679
0.0098721
0.00987618
0.00988013
0.00988398
0.00988771
0.00989133
0.00989484
0.00989825
0.00990156
0.00990477
0.00990788
0.0099109
0.00991383
0.00991667
0.00991942
0.00992209
0.00992468
0.00992719
0.00992962
0.00993198
0.00993426
0.00993647
0.00993862
0.0099407
0.00994271
0.00994466
0.00994654
0.00994837
0.00995014
0.00995185
0.00995351
0.00995512
0.00995667
0.00995818
0.00995963
0.00996104
0.0099624
0.00996372
0.009965
0.00996623
0.00996742
0.00996858
0.00996969
0.00997077
0.00997182
0.00997282
0.0099738
0.00997474
0.00997565
0.00997653
0.00997738
0.0099782
0.00997899
0.00997976
0.0099805
0.00998122
0.00998191
0.00998257
0.00998322
0.00998384
0.00998444
0.00998502
0.00998558
0.00998612
0.00998664
0.00998714
0.00998762
0.00998809
0.00998854
0.00998897
0.00998939
0.0099898
0.00999019
0.00999056
0.00999093
0.00999128
0.00999161
0.00999194
0.00999225
0.00999255
0.00999284
0.00999312
0.00999339
0.00999365
0.0099939
0.00999414
0.00999437
0.0099946
0.00999481
0.00999502
0.00999522
0.00999541
0.00999559
0.00999577
0.00999594
0.0099961
0.00999626
0.00999641
0.00999656
0.0099967
0.00999684
0.00999697
0.00999709
0.00999721
0.00999733
0.00999744
0.00999754
0.00999765
0.00999774
0.00999784
0.00999793
0.00999802
0.0099981
0.00999818
0.00999826
0.00999833
0.0099984
0.00999847
0.00999854
0.0099986
0.00999866
0.00999872
0.00999877
0.00999883
0.00999888
0.00999893
0.00999897
0.00999902
0.00999906
0.0099991
0.00999914
0.00999918
0.00999922
0.00999925
0.00999929
0.00999932
0.00999935
0.00999938
0.00999941
0.00999943
0.00999946
0.00999948
0.00999951
0.00999953
0.00999955
0.00999957
0.00999959
0.00999961
0.00999963
0.00999965
0.00999966
0.00999968
0.00999969
0.00999971
0.00999972
0.00999973
0.00999975
0.00999976
0.00999977
0.00999978
0.00999979
0.0099998
0.00999981
0.00999982
0.00999983
0.00999984
0.00999984
0.00999985
0.00999986
0.00999987
0.00999987
0.00999988
0.00999989
0.00999989
0.0099999
0.0099999
0.00999991
0.00999991
0.00999992
0.00999992
0.00999992
0.00999993
0.00999993
0.00999993
0.00999994
0.00999994
0.00999994
0.00999995
0.00999995
0.00999995
0.00999995
0.00999996
0.00999996
0.00999996
0.00999996
0.00999997
0.00999997
0.00999997
0.00999997
0.00999997
0.00999997
0.00999997
0.00999998
0.00999998
0.00999998
0.00999998
0.00999998
0.00999998
0.00999998
0.00999998
0.00999998
0.00999998
0.00999999
0.00999999
0.00999999
0.00999999
0.00999999
0.00999999
0.00999999
0.00999999
0.00999999
)
;
    }
}


// ************************************************************************* //
