/*--------------------------------*- C++ -*----------------------------------*\
  =========                 |
  \\      /  F ield         | OpenFOAM: The Open Source CFD Toolbox
   \\    /   O peration     | Website:  https://openfoam.org
    \\  /    A nd           | Version:  dev
     \\/     M anipulation  |
\*---------------------------------------------------------------------------*/
FoamFile
{
    format      ascii;
    class       volScalarField;
    location    "0.22";
    object      cov;
}
// * * * * * * * * * * * * * * * * * * * * * * * * * * * * * * * * * * * * * //

dimensions      [0 0 0 0 0 0 0];

internalField   uniform 0;

boundaryField
{
    frontAndBack
    {
        type            empty;
    }
    inlet
    {
        type            calculated;
        value           uniform 0;
    }
    outlet
    {
        type            calculated;
        value           uniform 0;
    }
    substrate
    {
        type            calculated;
        value           nonuniform List<scalar> 
400
(
0.723391
0.709431
0.699189
0.689826
0.680928
0.672459
0.664319
0.656419
0.648697
0.641107
0.633615
0.626196
0.618829
0.611498
0.604193
0.596904
0.589626
0.582354
0.575085
0.567817
0.560551
0.553286
0.546022
0.538762
0.531507
0.524259
0.517019
0.50979
0.502575
0.495376
0.488194
0.481034
0.473896
0.466784
0.4597
0.452647
0.445626
0.43864
0.431691
0.424782
0.417915
0.411091
0.404312
0.397581
0.390899
0.384269
0.377691
0.371167
0.3647
0.358289
0.351938
0.345646
0.339416
0.333248
0.327144
0.321104
0.31513
0.309222
0.303381
0.297608
0.291904
0.286269
0.280704
0.275209
0.269784
0.264431
0.259149
0.253938
0.2488
0.243733
0.238738
0.233815
0.228964
0.224185
0.219478
0.214842
0.210278
0.205786
0.201364
0.197013
0.192733
0.188523
0.184382
0.180311
0.176308
0.172374
0.168508
0.164708
0.160976
0.15731
0.15371
0.150175
0.146704
0.143297
0.139953
0.136671
0.133452
0.130294
0.127196
0.124157
0.121178
0.118258
0.115394
0.112588
0.109838
0.107143
0.104503
0.101917
0.0993845
0.096904
0.0944752
0.0920973
0.0897697
0.0874914
0.0852619
0.0830802
0.0809458
0.0788578
0.0768155
0.0748181
0.072865
0.0709554
0.0690886
0.0672638
0.0654804
0.0637375
0.0620346
0.0603709
0.0587457
0.0571583
0.0556081
0.0540943
0.0526163
0.0511735
0.049765
0.0483904
0.047049
0.04574
0.044463
0.0432172
0.0420021
0.040817
0.0396613
0.0385345
0.0374359
0.036365
0.0353212
0.0343039
0.0333126
0.0323467
0.0314058
0.0304891
0.0295964
0.0287269
0.0278802
0.0270558
0.0262532
0.025472
0.0247116
0.0239715
0.0232514
0.0225507
0.021869
0.0212059
0.0205609
0.0199336
0.0193235
0.0187304
0.0181538
0.0175932
0.0170483
0.0165187
0.016004
0.015504
0.0150181
0.0145461
0.0140876
0.0136423
0.0132098
0.0127898
0.012382
0.0119861
0.0116018
0.0112288
0.0108668
0.0105154
0.0101745
0.00984372
0.00952282
0.00921153
0.00890959
0.00861677
0.0083328
0.00805745
0.00779049
0.00753168
0.00728081
0.00703765
0.00680199
0.00657362
0.00635234
0.00613796
0.00593026
0.00572907
0.00553421
0.00534549
0.00516273
0.00498577
0.00481443
0.00464857
0.004488
0.00433259
0.00418219
0.00403663
0.00389579
0.00375952
0.00362768
0.00350015
0.00337679
0.00325749
0.00314211
0.00303054
0.00292266
0.00281837
0.00271755
0.0026201
0.0025259
0.00243487
0.00234691
0.00226191
0.00217979
0.00210045
0.00202382
0.0019498
0.00187831
0.00180928
0.00174261
0.00167825
0.00161611
0.00155613
0.00149823
0.00144235
0.00138843
0.00133639
0.00128618
0.00123773
0.001191
0.00114592
0.00110245
0.00106052
0.00102008
0.000981095
0.000943505
0.000907267
0.000872335
0.000838667
0.000806218
0.000774948
0.000744817
0.000715786
0.000687819
0.000660878
0.000634928
0.000609936
0.000585869
0.000562694
0.000540381
0.0005189
0.000498221
0.000478318
0.000459162
0.000440728
0.00042299
0.000405924
0.000389505
0.000373712
0.000358521
0.000343911
0.000329861
0.000316352
0.000303364
0.000290878
0.000278875
0.00026734
0.000256253
0.0002456
0.000235363
0.000225529
0.000216082
0.000207008
0.000198292
0.000189923
0.000181887
0.000174171
0.000166763
0.000159653
0.000152829
0.00014628
0.000139995
0.000133965
0.00012818
0.000122631
0.000117309
0.000112204
0.000107309
0.000102616
9.81162e-05
9.38029e-05
8.96686e-05
8.57064e-05
8.19095e-05
7.82716e-05
7.47862e-05
7.14475e-05
6.82496e-05
6.51869e-05
6.22541e-05
5.94461e-05
5.67578e-05
5.41844e-05
5.17213e-05
4.93642e-05
4.71086e-05
4.49505e-05
4.28859e-05
4.09111e-05
3.90223e-05
3.7216e-05
3.54889e-05
3.38376e-05
3.22591e-05
3.07503e-05
2.93083e-05
2.79304e-05
2.66139e-05
2.53561e-05
2.41547e-05
2.30072e-05
2.19114e-05
2.0865e-05
1.98661e-05
1.89124e-05
1.80022e-05
1.71336e-05
1.63047e-05
1.55138e-05
1.47594e-05
1.40398e-05
1.33534e-05
1.2699e-05
1.2075e-05
1.14801e-05
1.0913e-05
1.03726e-05
9.85759e-06
9.3669e-06
8.89943e-06
8.45414e-06
8.03005e-06
7.62621e-06
7.2417e-06
6.87565e-06
6.52723e-06
6.19564e-06
5.88013e-06
5.57995e-06
5.29441e-06
5.02286e-06
4.76464e-06
4.51916e-06
4.28584e-06
4.06412e-06
3.85348e-06
3.65343e-06
3.46349e-06
3.28321e-06
3.11217e-06
2.94998e-06
2.79625e-06
2.65064e-06
2.51282e-06
2.3825e-06
2.2594e-06
2.14327e-06
2.0339e-06
1.9311e-06
1.8347e-06
1.74459e-06
1.66068e-06
1.58292e-06
1.5113e-06
1.44586e-06
1.38669e-06
1.33392e-06
1.28776e-06
1.24844e-06
1.21627e-06
1.1916e-06
1.1748e-06
1.16624e-06
)
;
    }
    Wall
    {
        type            calculated;
        value           nonuniform List<scalar> 
400
(
0.723391
0.709431
0.69919
0.689827
0.680929
0.672458
0.664318
0.656417
0.648695
0.641104
0.633613
0.626193
0.618826
0.611496
0.604191
0.596902
0.589624
0.582352
0.575083
0.567816
0.560549
0.553284
0.546021
0.538761
0.531506
0.524258
0.517019
0.50979
0.502575
0.495376
0.488194
0.481034
0.473896
0.466785
0.459701
0.452647
0.445627
0.438641
0.431693
0.424784
0.417916
0.411092
0.404314
0.397583
0.390901
0.38427
0.377692
0.371169
0.364701
0.358291
0.351939
0.345648
0.339418
0.33325
0.327146
0.321106
0.315132
0.309224
0.303383
0.29761
0.291906
0.286271
0.280706
0.275211
0.269787
0.264433
0.259151
0.253941
0.248802
0.243735
0.23874
0.233817
0.228966
0.224187
0.21948
0.214845
0.210281
0.205788
0.201367
0.197016
0.192735
0.188525
0.184384
0.180313
0.17631
0.172376
0.16851
0.164711
0.160978
0.157312
0.153712
0.150177
0.146706
0.143299
0.139955
0.136673
0.133454
0.130295
0.127197
0.124159
0.12118
0.118259
0.115396
0.11259
0.10984
0.107145
0.104505
0.101919
0.099386
0.0969055
0.0944767
0.0920989
0.0897712
0.0874929
0.0852633
0.0830817
0.0809472
0.0788592
0.0768169
0.0748195
0.0728664
0.0709568
0.0690899
0.0672651
0.0654816
0.0637388
0.0620359
0.0603721
0.0587469
0.0571595
0.0556093
0.0540955
0.0526174
0.0511745
0.0497661
0.0483915
0.04705
0.045741
0.044464
0.0432182
0.042003
0.0408179
0.0396622
0.0385354
0.0374368
0.0363659
0.0353221
0.0343048
0.0333135
0.0323476
0.0314066
0.0304899
0.0295971
0.0287276
0.0278809
0.0270565
0.026254
0.0254727
0.0247123
0.0239722
0.023252
0.0225513
0.0218696
0.0212065
0.0205615
0.0199341
0.0193241
0.018731
0.0181543
0.0175937
0.0170488
0.0165192
0.0160046
0.0155045
0.0150186
0.0145466
0.014088
0.0136427
0.0132102
0.0127902
0.0123825
0.0119866
0.0116022
0.0112292
0.0108671
0.0105158
0.0101749
0.00984407
0.00952315
0.00921186
0.00890991
0.00861708
0.0083331
0.00805775
0.00779078
0.00753196
0.00728108
0.00703792
0.00680225
0.00657388
0.00635259
0.00613819
0.00593049
0.0057293
0.00553443
0.0053457
0.00516294
0.00498597
0.00481463
0.00464876
0.00448819
0.00433278
0.00418236
0.0040368
0.00389595
0.00375968
0.00362784
0.0035003
0.00337694
0.00325763
0.00314225
0.00303068
0.0029228
0.0028185
0.00271767
0.00262022
0.00252602
0.00243499
0.00234702
0.00226202
0.00217989
0.00210055
0.00202392
0.00194989
0.0018784
0.00180936
0.0017427
0.00167833
0.00161619
0.00155621
0.00149831
0.00144243
0.0013885
0.00133645
0.00128624
0.0012378
0.00119106
0.00114598
0.0011025
0.00106057
0.00102014
0.000981147
0.000943556
0.000907316
0.000872383
0.000838713
0.000806262
0.000774991
0.000744858
0.000715827
0.000687858
0.000660915
0.000634965
0.000609971
0.000585903
0.000562727
0.000540413
0.00051893
0.000498251
0.000478347
0.00045919
0.000440755
0.000423016
0.000405949
0.000389529
0.000373735
0.000358543
0.000343933
0.000329882
0.000316372
0.000303383
0.000290896
0.000278893
0.000267357
0.00025627
0.000245616
0.000235379
0.000225544
0.000216096
0.000207021
0.000198306
0.000189936
0.000181899
0.000174183
0.000166775
0.000159664
0.00015284
0.00014629
0.000140005
0.000133975
0.00012819
0.00012264
0.000117317
0.000112212
0.000107317
0.000102623
9.81236e-05
9.381e-05
8.96755e-05
8.5713e-05
8.19159e-05
7.82777e-05
7.47921e-05
7.14531e-05
6.8255e-05
6.51921e-05
6.22592e-05
5.94509e-05
5.67624e-05
5.41889e-05
5.17256e-05
4.93683e-05
4.71125e-05
4.49543e-05
4.28896e-05
4.09146e-05
3.90257e-05
3.72193e-05
3.5492e-05
3.38406e-05
3.2262e-05
3.07531e-05
2.9311e-05
2.7933e-05
2.66163e-05
2.53585e-05
2.41569e-05
2.30093e-05
2.19134e-05
2.0867e-05
1.98679e-05
1.89142e-05
1.8004e-05
1.71352e-05
1.63063e-05
1.55154e-05
1.47608e-05
1.40412e-05
1.33548e-05
1.27002e-05
1.20762e-05
1.14812e-05
1.09141e-05
1.03737e-05
9.85862e-06
9.36788e-06
8.90036e-06
8.45504e-06
8.03091e-06
7.62703e-06
7.24248e-06
6.87639e-06
6.52794e-06
6.19633e-06
5.88078e-06
5.58057e-06
5.29501e-06
5.02343e-06
4.76518e-06
4.51968e-06
4.28633e-06
4.06459e-06
3.85393e-06
3.65386e-06
3.4639e-06
3.2836e-06
3.11254e-06
2.95033e-06
2.79658e-06
2.65096e-06
2.51313e-06
2.38279e-06
2.25968e-06
2.14354e-06
2.03415e-06
1.93134e-06
1.83493e-06
1.74481e-06
1.66089e-06
1.58312e-06
1.5115e-06
1.44605e-06
1.38687e-06
1.3341e-06
1.28793e-06
1.24861e-06
1.21644e-06
1.19176e-06
1.17493e-06
1.16635e-06
)
;
    }
}


// ************************************************************************* //
