/*--------------------------------*- C++ -*----------------------------------*\
  =========                 |
  \\      /  F ield         | OpenFOAM: The Open Source CFD Toolbox
   \\    /   O peration     | Website:  https://openfoam.org
    \\  /    A nd           | Version:  dev
     \\/     M anipulation  |
\*---------------------------------------------------------------------------*/
FoamFile
{
    format      ascii;
    class       volScalarField;
    location    "0.22";
    object      Exp1;
}
// * * * * * * * * * * * * * * * * * * * * * * * * * * * * * * * * * * * * * //

dimensions      [0 0 0 0 0 0 0];

internalField   uniform 0;

boundaryField
{
    frontAndBack
    {
        type            empty;
    }
    inlet
    {
        type            calculated;
        value           uniform 0;
    }
    outlet
    {
        type            calculated;
        value           uniform 0;
    }
    substrate
    {
        type            calculated;
        value           nonuniform List<scalar> 
400
(
2.80264e-06
8.92414e-06
1.56514e-05
2.29501e-05
3.08183e-05
3.92756e-05
4.83403e-05
5.80306e-05
6.83673e-05
7.93723e-05
9.10689e-05
0.00010348
0.00011663
0.00013054
0.000145235
0.000160733
0.000177057
0.000194226
0.000212256
0.000231165
0.000250968
0.000271678
0.000293307
0.000315866
0.000339363
0.000363806
0.000389201
0.000415551
0.000442859
0.000471126
0.00050035
0.000530528
0.000561657
0.000593728
0.000626735
0.000660666
0.000695511
0.000731255
0.000767882
0.000805375
0.000843714
0.00088288
0.000922847
0.000963592
0.00100509
0.00104731
0.00109022
0.00113379
0.00117799
0.00122278
0.00126813
0.001314
0.00136035
0.00140713
0.00145432
0.00150185
0.0015497
0.00159781
0.00164613
0.00169463
0.00174325
0.00179194
0.00184066
0.00188936
0.00193798
0.00198647
0.00203479
0.00208288
0.00213069
0.00217817
0.00222528
0.00227195
0.00231814
0.00236381
0.00240889
0.00245335
0.00249713
0.00254019
0.00258249
0.00262397
0.00266459
0.00270432
0.00274311
0.00278091
0.0028177
0.00285343
0.00288806
0.00292158
0.00295393
0.00298509
0.00301504
0.00304374
0.00307116
0.0030973
0.00312211
0.00314559
0.00316772
0.00318847
0.00320784
0.00322581
0.00324238
0.00325753
0.00327126
0.00328357
0.00329444
0.00330389
0.00331191
0.0033185
0.00332368
0.00332744
0.00332981
0.00333077
0.00333036
0.00332859
0.00332546
0.00332098
0.00331519
0.00330809
0.00329971
0.00329007
0.0032792
0.00326712
0.00325385
0.00323943
0.00322387
0.00320721
0.00318948
0.0031707
0.00315091
0.00313014
0.00310842
0.00308578
0.00306225
0.00303787
0.00301267
0.00298669
0.00295995
0.0029325
0.00290436
0.00287557
0.00284616
0.00281617
0.00278564
0.00275458
0.00272304
0.00269106
0.00265865
0.00262586
0.00259272
0.00255926
0.0025255
0.00249149
0.00245724
0.0024228
0.00238818
0.00235341
0.00231853
0.00228356
0.00224852
0.00221345
0.00217836
0.00214328
0.00210823
0.00207324
0.00203832
0.00200351
0.00196881
0.00193425
0.00189985
0.00186563
0.00183159
0.00179777
0.00176417
0.00173081
0.0016977
0.00166486
0.0016323
0.00160004
0.00156808
0.00153643
0.00150511
0.00147413
0.00144348
0.00141319
0.00138326
0.0013537
0.00132451
0.0012957
0.00126727
0.00123923
0.00121158
0.00118433
0.00115749
0.00113104
0.001105
0.00107937
0.00105414
0.00102932
0.00100492
0.000980925
0.00095734
0.000934166
0.0009114
0.000889043
0.000867092
0.000845547
0.000824404
0.000803662
0.000783319
0.000763371
0.000743816
0.000724651
0.000705872
0.000687476
0.000669458
0.000651817
0.000634546
0.000617643
0.000601103
0.000584922
0.000569095
0.000553618
0.000538485
0.000523694
0.000509237
0.000495112
0.000481312
0.000467834
0.000454671
0.000441819
0.000429273
0.000417028
0.000405079
0.000393421
0.000382048
0.000370955
0.000360139
0.000349592
0.000339311
0.00032929
0.000319525
0.00031001
0.000300741
0.000291712
0.000282919
0.000274357
0.000266021
0.000257906
0.000250008
0.000242322
0.000234844
0.000227569
0.000220492
0.000213609
0.000206916
0.000200408
0.000194081
0.000187932
0.000181955
0.000176147
0.000170504
0.000165022
0.000159697
0.000154525
0.000149503
0.000144627
0.000139893
0.000135298
0.000130837
0.000126509
0.000122309
0.000118235
0.000114282
0.000110449
0.000106731
0.000103125
9.96299e-05
9.62413e-05
9.29567e-05
8.97734e-05
8.66885e-05
8.36995e-05
8.08037e-05
7.79986e-05
7.52816e-05
7.26505e-05
7.01027e-05
6.76359e-05
6.52479e-05
6.29365e-05
6.06994e-05
5.85346e-05
5.644e-05
5.44135e-05
5.24533e-05
5.05574e-05
4.87239e-05
4.69509e-05
4.52368e-05
4.35798e-05
4.19781e-05
4.04301e-05
3.89343e-05
3.7489e-05
3.60927e-05
3.4744e-05
3.34413e-05
3.21834e-05
3.09687e-05
2.9796e-05
2.86639e-05
2.75713e-05
2.65168e-05
2.54993e-05
2.45176e-05
2.35706e-05
2.26571e-05
2.17762e-05
2.09267e-05
2.01076e-05
1.9318e-05
1.85569e-05
1.78234e-05
1.71165e-05
1.64354e-05
1.57793e-05
1.51473e-05
1.45386e-05
1.39525e-05
1.33881e-05
1.28448e-05
1.23218e-05
1.18185e-05
1.13341e-05
1.08681e-05
1.04197e-05
9.9885e-06
9.57374e-06
9.17491e-06
8.79144e-06
8.4228e-06
8.06846e-06
7.72792e-06
7.40069e-06
7.0863e-06
6.78428e-06
6.4942e-06
6.21561e-06
5.94812e-06
5.6913e-06
5.44478e-06
5.20818e-06
4.98113e-06
4.76328e-06
4.55429e-06
4.35383e-06
4.16158e-06
3.97724e-06
3.80051e-06
3.63109e-06
3.46873e-06
3.31314e-06
3.16407e-06
3.02128e-06
2.88452e-06
2.75356e-06
2.62819e-06
2.50818e-06
2.39334e-06
2.28347e-06
2.17838e-06
2.07788e-06
1.98181e-06
1.89e-06
1.80229e-06
1.71853e-06
1.63859e-06
1.56233e-06
1.48963e-06
1.42037e-06
1.35444e-06
1.29175e-06
1.23221e-06
1.17575e-06
1.1223e-06
1.07181e-06
1.02424e-06
9.79578e-07
9.37805e-07
8.98937e-07
8.63003e-07
8.30057e-07
8.00172e-07
7.73448e-07
7.50009e-07
7.30004e-07
7.13608e-07
7.01016e-07
6.92432e-07
6.88057e-07
)
;
    }
    Wall
    {
        type            calculated;
        value           nonuniform List<scalar> 
400
(
2.80253e-06
8.92388e-06
1.5651e-05
2.29496e-05
3.08176e-05
3.92747e-05
4.83389e-05
5.80288e-05
6.83648e-05
7.93692e-05
9.1065e-05
0.000103476
0.000116624
0.000130534
0.000145227
0.000160724
0.000177047
0.000194214
0.000212243
0.00023115
0.000250952
0.00027166
0.000293287
0.000315844
0.000339339
0.000363781
0.000389173
0.000415522
0.000442828
0.000471092
0.000500314
0.000530491
0.000561617
0.000593686
0.00062669
0.00066062
0.000695462
0.000731203
0.000767827
0.000805318
0.000843655
0.000882817
0.000922782
0.000963524
0.00100502
0.00104723
0.00109014
0.00113371
0.00117791
0.0012227
0.00126804
0.00131391
0.00136025
0.00140703
0.00145421
0.00150175
0.00154959
0.00159769
0.00164602
0.00169451
0.00174313
0.00179182
0.00184054
0.00188923
0.00193784
0.00198634
0.00203465
0.00208274
0.00213055
0.00217803
0.00222513
0.0022718
0.00231799
0.00236365
0.00240874
0.00245319
0.00249697
0.00254003
0.00258232
0.0026238
0.00266443
0.00270415
0.00274293
0.00278074
0.00281752
0.00285325
0.00288789
0.0029214
0.00295375
0.00298491
0.00301486
0.00304356
0.00307098
0.00309712
0.00312193
0.00314541
0.00316754
0.00318829
0.00320766
0.00322563
0.0032422
0.00325735
0.00327108
0.00328339
0.00329426
0.00330371
0.00331173
0.00331833
0.00332351
0.00332728
0.00332964
0.00333061
0.0033302
0.00332843
0.0033253
0.00332082
0.00331503
0.00330793
0.00329956
0.00328992
0.00327905
0.00326697
0.00325371
0.00323929
0.00322373
0.00320708
0.00318935
0.00317057
0.00315078
0.00313002
0.0031083
0.00308566
0.00306213
0.00303776
0.00301256
0.00298658
0.00295985
0.0029324
0.00290426
0.00287547
0.00284607
0.00281608
0.00278555
0.0027545
0.00272296
0.00269098
0.00265858
0.00262579
0.00259265
0.00255919
0.00252544
0.00249142
0.00245718
0.00242274
0.00238812
0.00235336
0.00231848
0.00228351
0.00224847
0.0022134
0.00217831
0.00214323
0.00210819
0.0020732
0.00203829
0.00200347
0.00196878
0.00193422
0.00189982
0.0018656
0.00183157
0.00179774
0.00176414
0.00173079
0.00169768
0.00166484
0.00163229
0.00160002
0.00156806
0.00153642
0.0015051
0.00147411
0.00144347
0.00141318
0.00138325
0.00135369
0.0013245
0.00129569
0.00126726
0.00123922
0.00121158
0.00118433
0.00115748
0.00113104
0.001105
0.00107936
0.00105414
0.00102932
0.00100492
0.000980926
0.000957342
0.000934168
0.000911403
0.000889046
0.000867096
0.000845551
0.000824408
0.000803667
0.000783324
0.000763376
0.000743821
0.000724656
0.000705877
0.000687481
0.000669464
0.000651823
0.000634553
0.00061765
0.00060111
0.000584929
0.000569102
0.000553624
0.000538492
0.0005237
0.000509244
0.000495119
0.000481319
0.000467841
0.000454678
0.000441826
0.00042928
0.000417035
0.000405086
0.000393427
0.000382055
0.000370962
0.000360145
0.000349599
0.000339318
0.000329297
0.000319532
0.000310017
0.000300747
0.000291719
0.000282925
0.000274363
0.000266027
0.000257912
0.000250014
0.000242328
0.00023485
0.000227574
0.000220497
0.000213614
0.000206921
0.000200413
0.000194087
0.000187937
0.00018196
0.000176152
0.000170509
0.000165027
0.000159702
0.00015453
0.000149508
0.000144631
0.000139897
0.000135302
0.000130842
0.000126513
0.000122313
0.000118239
0.000114286
0.000110452
0.000106734
0.000103129
9.96335e-05
9.62448e-05
9.29601e-05
8.97767e-05
8.66917e-05
8.37026e-05
8.08068e-05
7.80016e-05
7.52846e-05
7.26533e-05
7.01055e-05
6.76386e-05
6.52506e-05
6.2939e-05
6.07019e-05
5.85371e-05
5.64424e-05
5.44159e-05
5.24556e-05
5.05596e-05
4.8726e-05
4.69531e-05
4.52389e-05
4.35818e-05
4.198e-05
4.0432e-05
3.89361e-05
3.74908e-05
3.60945e-05
3.47457e-05
3.3443e-05
3.2185e-05
3.09703e-05
2.97975e-05
2.86654e-05
2.75727e-05
2.65182e-05
2.55007e-05
2.45189e-05
2.35719e-05
2.26584e-05
2.17774e-05
2.09278e-05
2.01087e-05
1.93191e-05
1.8558e-05
1.78244e-05
1.71175e-05
1.64364e-05
1.57803e-05
1.51482e-05
1.45395e-05
1.39533e-05
1.33889e-05
1.28456e-05
1.23226e-05
1.18192e-05
1.13348e-05
1.08688e-05
1.04204e-05
9.98916e-06
9.57438e-06
9.17553e-06
8.79204e-06
8.42337e-06
8.06902e-06
7.72846e-06
7.40121e-06
7.0868e-06
6.78477e-06
6.49467e-06
6.21607e-06
5.94855e-06
5.69173e-06
5.44519e-06
5.20857e-06
4.98151e-06
4.76365e-06
4.55464e-06
4.35417e-06
4.16191e-06
3.97755e-06
3.80081e-06
3.63138e-06
3.46901e-06
3.31341e-06
3.16433e-06
3.02153e-06
2.88476e-06
2.75379e-06
2.62841e-06
2.5084e-06
2.39355e-06
2.28367e-06
2.17857e-06
2.07806e-06
1.98198e-06
1.89017e-06
1.80245e-06
1.71869e-06
1.63874e-06
1.56248e-06
1.48977e-06
1.4205e-06
1.35457e-06
1.29187e-06
1.23233e-06
1.17586e-06
1.12241e-06
1.07191e-06
1.02434e-06
9.79675e-07
9.37899e-07
8.99027e-07
8.63091e-07
8.30142e-07
8.00255e-07
7.73529e-07
7.50088e-07
7.30083e-07
7.13686e-07
7.01089e-07
6.92494e-07
6.8811e-07
)
;
    }
}


// ************************************************************************* //
