/*--------------------------------*- C++ -*----------------------------------*\
  =========                 |
  \\      /  F ield         | OpenFOAM: The Open Source CFD Toolbox
   \\    /   O peration     | Website:  https://openfoam.org
    \\  /    A nd           | Version:  dev
     \\/     M anipulation  |
\*---------------------------------------------------------------------------*/
FoamFile
{
    format      ascii;
    class       volScalarField;
    location    "0.22";
    object      N1;
}
// * * * * * * * * * * * * * * * * * * * * * * * * * * * * * * * * * * * * * //

dimensions      [0 0 0 0 0 0 0];

internalField   nonuniform List<scalar> 
8000
(
2.1279e-05
6.77732e-05
0.000118884
0.000174353
0.000234165
0.000298471
0.000367411
0.000441125
0.000519771
0.000603521
0.00069255
0.000787039
0.000887167
0.000993112
0.00110504
0.00122313
0.00134753
0.00147838
0.00161583
0.00176001
0.00191103
0.00206899
0.002234
0.00240613
0.00258546
0.00277204
0.00296592
0.00316713
0.0033757
0.00359162
0.0038149
0.00404551
0.00428342
0.00452859
0.00478094
0.00504042
0.00530692
0.00558035
0.00586058
0.00614749
0.00644093
0.00674074
0.00704674
0.00735874
0.00767655
0.00799995
0.00832871
0.00866259
0.00900133
0.00934467
0.00969233
0.010044
0.0103994
0.0107583
0.0111202
0.0114849
0.0118521
0.0122213
0.0125922
0.0129646
0.0133379
0.0137118
0.014086
0.0144601
0.0148336
0.0152062
0.0155775
0.0159472
0.0163147
0.0166798
0.017042
0.017401
0.0177563
0.0181076
0.0184545
0.0187967
0.0191337
0.0194652
0.0197908
0.0201103
0.0204232
0.0207292
0.021028
0.0213194
0.0216029
0.0218784
0.0221455
0.022404
0.0226536
0.022894
0.0231252
0.0233468
0.0235586
0.0237605
0.0239523
0.0241338
0.024305
0.0244656
0.0246156
0.0247548
0.0248832
0.0250008
0.0251075
0.0252031
0.0252879
0.0253616
0.0254243
0.0254761
0.025517
0.025547
0.0255663
0.0255748
0.0255727
0.0255601
0.025537
0.0255037
0.0254601
0.0254065
0.0253431
0.02527
0.0251874
0.0250954
0.0249943
0.0248843
0.0247656
0.0246384
0.0245029
0.0243594
0.024208
0.0240491
0.0238829
0.0237096
0.0235294
0.0233427
0.0231496
0.0229505
0.0227456
0.0225352
0.0223194
0.0220987
0.0218732
0.0216431
0.0214089
0.0211706
0.0209287
0.0206832
0.0204345
0.0201829
0.0199285
0.0196716
0.0194125
0.0191513
0.0188884
0.0186239
0.0183581
0.0180911
0.0178232
0.0175546
0.0172855
0.0170161
0.0167465
0.016477
0.0162078
0.015939
0.0156708
0.0154033
0.0151367
0.0148711
0.0146068
0.0143438
0.0140823
0.0138223
0.0135641
0.0133077
0.0130533
0.0128009
0.0125507
0.0123027
0.012057
0.0118138
0.0115731
0.0113349
0.0110993
0.0108665
0.0106364
0.0104092
0.0101848
0.00996327
0.00974473
0.00952918
0.00931664
0.00910715
0.00890074
0.00869742
0.00849721
0.00830013
0.00810619
0.0079154
0.00772775
0.00754327
0.00736193
0.00718375
0.00700871
0.0068368
0.00666803
0.00650236
0.00633979
0.0061803
0.00602388
0.00587049
0.00572013
0.00557275
0.00542835
0.00528689
0.00514835
0.00501269
0.00487989
0.00474991
0.00462272
0.00449829
0.00437658
0.00425756
0.0041412
0.00402745
0.00391628
0.00380765
0.00370153
0.00359788
0.00349666
0.00339783
0.00330135
0.00320718
0.00311529
0.00302563
0.00293817
0.00285287
0.00276969
0.00268858
0.00260952
0.00253245
0.00245736
0.00238418
0.0023129
0.00224346
0.00217584
0.00210999
0.00204588
0.00198348
0.00192274
0.00186363
0.00180612
0.00175017
0.00169574
0.00164281
0.00159133
0.00154128
0.00149263
0.00144533
0.00139937
0.0013547
0.00131131
0.00126915
0.00122819
0.00118842
0.0011498
0.00111229
0.00107588
0.00104054
0.00100624
0.000972954
0.000940655
0.000909319
0.000878921
0.000849437
0.000820843
0.000793117
0.000766234
0.000740173
0.000714912
0.00069043
0.000666705
0.000643717
0.000621446
0.000599872
0.000578977
0.000558741
0.000539147
0.000520175
0.00050181
0.000484033
0.000466828
0.000450179
0.00043407
0.000418485
0.000403409
0.000388828
0.000374727
0.000361092
0.000347909
0.000335165
0.000322846
0.000310941
0.000299437
0.000288322
0.000277583
0.00026721
0.000257192
0.000247517
0.000238175
0.000229156
0.00022045
0.000212046
0.000203937
0.000196111
0.000188561
0.000181278
0.000174252
0.000167477
0.000160944
0.000154644
0.000148572
0.000142718
0.000137077
0.00013164
0.000126402
0.000121356
0.000116496
0.000111814
0.000107306
0.000102966
9.87874e-05
9.47652e-05
9.08941e-05
8.7169e-05
8.35848e-05
8.01367e-05
7.682e-05
7.36302e-05
7.05628e-05
6.76136e-05
6.47784e-05
6.20533e-05
5.94342e-05
5.69176e-05
5.44996e-05
5.21769e-05
4.99459e-05
4.78033e-05
4.57461e-05
4.3771e-05
4.1875e-05
4.00553e-05
3.83091e-05
3.66337e-05
3.50264e-05
3.34847e-05
3.20061e-05
3.05884e-05
2.92291e-05
2.79262e-05
2.66775e-05
2.54808e-05
2.43344e-05
2.32362e-05
2.21844e-05
2.11772e-05
2.0213e-05
1.92901e-05
1.84068e-05
1.75618e-05
1.67536e-05
1.59807e-05
1.52418e-05
1.45357e-05
1.38611e-05
1.3217e-05
1.26022e-05
1.20157e-05
1.14565e-05
1.09238e-05
1.04168e-05
9.93464e-06
9.47674e-06
9.04251e-06
8.63143e-06
8.24313e-06
7.8773e-06
7.53378e-06
7.21252e-06
6.91359e-06
6.63723e-06
6.38384e-06
6.154e-06
5.94847e-06
5.7682e-06
5.61435e-06
5.48825e-06
5.39141e-06
5.32539e-06
5.29174e-06
2.08468e-05
6.68131e-05
0.000117499
0.000172787
0.000232621
0.000297081
0.00036628
0.000440353
0.000519453
0.00060375
0.000693426
0.000788662
0.000889645
0.000996557
0.00110957
0.00122887
0.00135461
0.00148694
0.00162602
0.00177197
0.00192492
0.00208498
0.00225225
0.00242683
0.00260878
0.00279818
0.00299507
0.0031995
0.00341148
0.00363104
0.00385818
0.00409287
0.00433509
0.0045848
0.00484194
0.00510644
0.00537821
0.00565715
0.00594315
0.00623608
0.00653579
0.00684212
0.0071549
0.00747394
0.00779904
0.00812998
0.00846653
0.00880845
0.00915548
0.00950735
0.00986377
0.0102245
0.0105891
0.0109574
0.011329
0.0117036
0.0120808
0.0124603
0.0128417
0.0132246
0.0136087
0.0139936
0.0143788
0.0147641
0.015149
0.015533
0.0159159
0.0162971
0.0166764
0.0170532
0.0174272
0.017798
0.0181652
0.0185283
0.0188871
0.019241
0.0195898
0.019933
0.0202703
0.0206013
0.0209256
0.021243
0.0215531
0.0218556
0.02215
0.0224363
0.022714
0.0229829
0.0232427
0.0234931
0.0237341
0.0239652
0.0241863
0.0243972
0.0245977
0.0247878
0.0249671
0.0251356
0.0252932
0.0254397
0.0255751
0.0256993
0.0258122
0.0259139
0.0260042
0.0260832
0.0261509
0.0262073
0.0262524
0.0262863
0.0263091
0.0263207
0.0263214
0.0263113
0.0262903
0.0262587
0.0262165
0.0261639
0.0261012
0.0260283
0.0259457
0.0258534
0.0257516
0.0256405
0.0255204
0.0253915
0.0252541
0.0251082
0.0249543
0.0247924
0.024623
0.0244462
0.0242623
0.0240716
0.0238742
0.0236706
0.0234609
0.0232454
0.0230245
0.0227983
0.0225671
0.0223312
0.0220909
0.0218464
0.021598
0.021346
0.0210906
0.0208321
0.0205706
0.0203066
0.0200402
0.0197717
0.0195012
0.0192291
0.0189556
0.0186809
0.0184051
0.0181286
0.0178516
0.0175741
0.0172965
0.0170189
0.0167416
0.0164646
0.0161882
0.0159125
0.0156377
0.015364
0.0150915
0.0148203
0.0145507
0.0142826
0.0140163
0.0137518
0.0134894
0.013229
0.0129708
0.012715
0.0124615
0.0122105
0.011962
0.0117162
0.0114731
0.0112327
0.0109952
0.0107606
0.0105289
0.0103002
0.0100745
0.00985193
0.00963245
0.0094161
0.00920291
0.00899291
0.00878611
0.00858253
0.00838219
0.00818508
0.00799123
0.00780062
0.00761327
0.00742916
0.00724829
0.00707066
0.00689625
0.00672504
0.00655704
0.00639221
0.00623054
0.006072
0.00591659
0.00576426
0.005615
0.00546877
0.00532555
0.00518531
0.00504802
0.00491365
0.00478215
0.00465351
0.00452767
0.00440461
0.0042843
0.00416668
0.00405173
0.00393941
0.00382967
0.00372249
0.00361781
0.00351561
0.00341583
0.00331845
0.00322341
0.00313069
0.00304023
0.00295201
0.00286597
0.00278208
0.0027003
0.00262059
0.00254291
0.00246722
0.00239349
0.00232166
0.00225171
0.00218359
0.00211727
0.00205272
0.00198988
0.00192873
0.00186923
0.00181135
0.00175504
0.00170027
0.00164702
0.00159524
0.0015449
0.00149596
0.00144841
0.00140219
0.00135729
0.00131366
0.00127129
0.00123013
0.00119017
0.00115136
0.00111369
0.00107711
0.00104162
0.00100717
0.000973749
0.000941321
0.000909863
0.000879351
0.000849759
0.000821065
0.000793244
0.000766272
0.000740129
0.000714791
0.000690236
0.000666444
0.000643394
0.000621066
0.000599439
0.000578494
0.000558213
0.000538577
0.000519567
0.000501167
0.000483359
0.000466125
0.00044945
0.000433318
0.000417713
0.000402619
0.000388022
0.000373907
0.00036026
0.000347068
0.000334316
0.000321991
0.000310082
0.000298575
0.000287458
0.000276719
0.000266347
0.000256331
0.000246659
0.000237321
0.000228307
0.000219607
0.000211211
0.000203109
0.000195291
0.00018775
0.000180476
0.000173461
0.000166696
0.000160173
0.000153885
0.000147824
0.000141983
0.000136353
0.000130929
0.000125704
0.000120671
0.000115823
0.000111155
0.00010666
0.000102333
9.81675e-05
9.41586e-05
9.03008e-05
8.65889e-05
8.30179e-05
7.9583e-05
7.62794e-05
7.31025e-05
7.00481e-05
6.71117e-05
6.42891e-05
6.15765e-05
5.89699e-05
5.64655e-05
5.40596e-05
5.17488e-05
4.95295e-05
4.73986e-05
4.53527e-05
4.33888e-05
4.15039e-05
3.9695e-05
3.79594e-05
3.62944e-05
3.46974e-05
3.31657e-05
3.1697e-05
3.02889e-05
2.89391e-05
2.76454e-05
2.64057e-05
2.5218e-05
2.40802e-05
2.29905e-05
2.1947e-05
2.0948e-05
1.99917e-05
1.90766e-05
1.8201e-05
1.73635e-05
1.65626e-05
1.5797e-05
1.50653e-05
1.43663e-05
1.36987e-05
1.30615e-05
1.24537e-05
1.18741e-05
1.1322e-05
1.07963e-05
1.02965e-05
9.82174e-06
9.37144e-06
8.94509e-06
8.54229e-06
8.16271e-06
7.80617e-06
7.47261e-06
7.1621e-06
6.87489e-06
6.61137e-06
6.37214e-06
6.15798e-06
5.96989e-06
5.80908e-06
5.67697e-06
5.57519e-06
5.50551e-06
5.46978e-06
2.04587e-05
6.56203e-05
0.000115375
0.000169826
0.000229001
0.000292959
0.00036179
0.000435614
0.000514574
0.000598834
0.000688572
0.000783971
0.000885217
0.000992495
0.00110599
0.00122587
0.0013523
0.00148546
0.00162548
0.0017725
0.00192666
0.00208808
0.00225685
0.00243308
0.00261685
0.00280822
0.00300727
0.00321403
0.00342853
0.00365079
0.00388083
0.00411862
0.00436415
0.00461738
0.00487826
0.00514671
0.00542266
0.00570602
0.00599666
0.00629446
0.00659929
0.00691097
0.00722934
0.00755422
0.00788539
0.00822265
0.00856576
0.00891447
0.00926854
0.00962767
0.0099916
0.01036
0.0107326
0.0111091
0.0114891
0.0118723
0.0122583
0.0126468
0.0130374
0.0134297
0.0138234
0.014218
0.0146131
0.0150084
0.0154034
0.0157978
0.016191
0.0165828
0.0169727
0.0173602
0.0177449
0.0181265
0.0185045
0.0188786
0.0192482
0.0196131
0.0199728
0.0203269
0.020675
0.0210168
0.0213519
0.02168
0.0220007
0.0223136
0.0226185
0.0229149
0.0232028
0.0234816
0.0237512
0.0240113
0.0242617
0.024502
0.0247322
0.0249519
0.0251611
0.0253595
0.0255469
0.0257233
0.0258884
0.0260423
0.0261847
0.0263157
0.0264351
0.026543
0.0266392
0.0267237
0.0267967
0.026858
0.0269077
0.0269459
0.0269726
0.0269879
0.0269918
0.0269848
0.0269665
0.0269372
0.026897
0.0268461
0.0267846
0.0267128
0.0266309
0.0265389
0.0264372
0.0263259
0.0262053
0.0260755
0.0259368
0.0257895
0.0256338
0.02547
0.0252982
0.0251189
0.0249321
0.0247383
0.0245376
0.0243304
0.0241168
0.0238973
0.0236721
0.0234414
0.0232055
0.0229647
0.0227193
0.0224695
0.0222157
0.021958
0.0216968
0.0214323
0.0211648
0.0208946
0.0206218
0.0203468
0.0200698
0.019791
0.0195107
0.0192291
0.0189464
0.0186629
0.0183787
0.0180941
0.0178093
0.0175245
0.0172398
0.0169555
0.0166717
0.0163887
0.0161065
0.0158254
0.0155455
0.0152669
0.0149898
0.0147143
0.0144406
0.0141688
0.013899
0.0136314
0.0133659
0.0131028
0.0128421
0.012584
0.0123284
0.0120756
0.0118254
0.0115782
0.0113338
0.0110923
0.0108539
0.0106186
0.0103863
0.0101572
0.00993123
0.00970851
0.00948902
0.0092728
0.00905987
0.00885023
0.00864392
0.00844093
0.00824127
0.00804495
0.00785196
0.00766231
0.00747599
0.00729298
0.00711329
0.0069369
0.00676379
0.00659394
0.00642734
0.00626397
0.0061038
0.00594681
0.00579297
0.00564225
0.00549463
0.00535008
0.00520855
0.00507003
0.00493447
0.00480184
0.0046721
0.00454522
0.00442117
0.00429989
0.00418136
0.00406554
0.00395238
0.00384184
0.00373389
0.00362849
0.00352558
0.00342514
0.00332712
0.00323148
0.00313818
0.00304717
0.00295842
0.00287188
0.00278752
0.00270529
0.00262515
0.00254707
0.00247099
0.00239688
0.00232471
0.00225443
0.002186
0.00211939
0.00205455
0.00199145
0.00193005
0.00187032
0.00181221
0.0017557
0.00170074
0.0016473
0.00159534
0.00154484
0.00149575
0.00144806
0.00140171
0.00135668
0.00131294
0.00127046
0.00122921
0.00118915
0.00115026
0.00111251
0.00107586
0.0010403
0.0010058
0.000972318
0.000939841
0.00090834
0.000877789
0.000848163
0.000819438
0.00079159
0.000764596
0.000738433
0.00071308
0.000688513
0.000664711
0.000641654
0.000619321
0.000597693
0.000576749
0.00055647
0.000536839
0.000517836
0.000499445
0.000481646
0.000464425
0.000447763
0.000431645
0.000416056
0.000400979
0.0003864
0.000372304
0.000358677
0.000345504
0.000332774
0.000320471
0.000308584
0.0002971
0.000286006
0.000275292
0.000264944
0.000254952
0.000245305
0.000235992
0.000227004
0.000218328
0.000209957
0.00020188
0.000194088
0.000186572
0.000179324
0.000172333
0.000165593
0.000159096
0.000152832
0.000146796
0.000140978
0.000135373
0.000129973
0.000124771
0.000119761
0.000114937
0.000110291
0.000105819
0.000101513
9.73698e-05
9.33823e-05
8.95455e-05
8.58543e-05
8.23037e-05
7.88888e-05
7.56048e-05
7.24473e-05
6.94117e-05
6.64938e-05
6.36895e-05
6.09947e-05
5.84055e-05
5.59181e-05
5.3529e-05
5.12344e-05
4.90312e-05
4.69158e-05
4.48852e-05
4.29361e-05
4.10657e-05
3.92711e-05
3.75493e-05
3.58978e-05
3.43138e-05
3.2795e-05
3.13387e-05
2.99428e-05
2.86048e-05
2.73227e-05
2.60943e-05
2.49175e-05
2.37903e-05
2.2711e-05
2.16776e-05
2.06885e-05
1.97418e-05
1.88361e-05
1.79697e-05
1.71411e-05
1.6349e-05
1.55919e-05
1.48686e-05
1.41779e-05
1.35185e-05
1.28894e-05
1.22895e-05
1.1718e-05
1.11738e-05
1.06563e-05
1.01646e-05
9.69817e-06
9.25643e-06
8.83895e-06
8.4454e-06
8.07556e-06
7.72936e-06
7.40687e-06
7.10831e-06
6.83409e-06
6.58481e-06
6.36129e-06
6.16457e-06
5.99594e-06
5.85694e-06
5.74937e-06
5.67527e-06
5.637e-06
2.0075e-05
6.43759e-05
0.000113108
0.000166484
0.000224634
0.000287658
0.000355663
0.00042877
0.000507123
0.000590882
0.000680222
0.000775325
0.000876375
0.000983558
0.00109705
0.00121704
0.00134369
0.00147716
0.0016176
0.00176517
0.00191998
0.00208218
0.00225186
0.00242912
0.00261407
0.00280676
0.00300727
0.00321565
0.00343194
0.00365615
0.00388831
0.0041284
0.00437641
0.00463231
0.00489604
0.00516756
0.00544677
0.00573359
0.00602791
0.00632961
0.00663853
0.00695454
0.00727746
0.0076071
0.00794326
0.00828574
0.00863428
0.00898866
0.00934861
0.00971386
0.0100841
0.0104591
0.0108385
0.0112219
0.0116091
0.0119997
0.0123933
0.0127896
0.0131881
0.0135886
0.0139906
0.0143937
0.0147975
0.0152016
0.0156056
0.016009
0.0164115
0.0168126
0.0172119
0.0176089
0.0180033
0.0183946
0.0187824
0.0191662
0.0195457
0.0199204
0.02029
0.020654
0.021012
0.0213637
0.0217087
0.0220465
0.0223769
0.0226995
0.023014
0.02332
0.0236172
0.0239053
0.0241841
0.0244532
0.0247124
0.0249615
0.0252002
0.0254283
0.0256456
0.0258519
0.0260471
0.0262311
0.0264036
0.0265645
0.0267138
0.0268514
0.0269771
0.0270911
0.0271931
0.0272832
0.0273615
0.0274278
0.0274822
0.0275248
0.0275557
0.0275748
0.0275823
0.0275784
0.0275633
0.0275366
0.0274988
0.0274499
0.0273903
0.0273199
0.0272392
0.0271481
0.027047
0.026936
0.0268154
0.0266854
0.0265462
0.0263981
0.0262413
0.0260761
0.0259028
0.0257216
0.0255327
0.0253366
0.0251333
0.0249233
0.0247067
0.024484
0.0242553
0.0240209
0.0237812
0.0235363
0.0232867
0.0230325
0.0227741
0.0225117
0.0222456
0.0219761
0.0217034
0.0214278
0.0211496
0.020869
0.0205863
0.0203018
0.0200156
0.019728
0.0194392
0.0191495
0.0188592
0.0185683
0.0182771
0.0179859
0.0176948
0.017404
0.0171137
0.0168241
0.0165353
0.0162476
0.0159611
0.0156759
0.0153922
0.0151101
0.0148298
0.0145514
0.0142751
0.0140008
0.0137289
0.0134593
0.0131921
0.0129275
0.0126656
0.0124063
0.0121499
0.0118964
0.0116458
0.0113982
0.0111536
0.0109122
0.010674
0.0104389
0.0102071
0.00997859
0.00975337
0.00953149
0.00931296
0.00909781
0.00888604
0.00867768
0.00847272
0.00827117
0.00807304
0.00787832
0.007687
0.00749908
0.00731455
0.0071334
0.00695561
0.00678116
0.00661004
0.00644222
0.00627769
0.00611641
0.00595836
0.00580351
0.00565183
0.0055033
0.00535788
0.00521553
0.00507622
0.00493991
0.00480658
0.00467618
0.00454867
0.00442402
0.00430218
0.00418312
0.00406679
0.00395316
0.00384217
0.00373381
0.00362801
0.00352473
0.00342395
0.0033256
0.00322966
0.00313608
0.00304481
0.00295582
0.00286906
0.00278449
0.00270207
0.00262175
0.00254351
0.00246728
0.00239304
0.00232075
0.00225036
0.00218183
0.00211513
0.00205022
0.00198705
0.0019256
0.00186581
0.00180766
0.00175112
0.00169613
0.00164267
0.00159071
0.0015402
0.00149111
0.00144342
0.00139708
0.00135207
0.00130835
0.00126589
0.00122466
0.00118464
0.00114578
0.00110807
0.00107146
0.00103595
0.00100149
0.000968055
0.000935628
0.000904178
0.00087368
0.000844109
0.00081544
0.00078765
0.000760715
0.000734611
0.000709318
0.000684811
0.000661071
0.000638077
0.000615806
0.00059424
0.000573359
0.000553144
0.000533576
0.000514636
0.000496307
0.000478572
0.000461412
0.000444813
0.000428757
0.000413229
0.000398213
0.000383695
0.000369659
0.000356091
0.000342978
0.000330306
0.000318061
0.000306231
0.000294803
0.000283765
0.000273105
0.000262811
0.000252873
0.000243278
0.000234017
0.000225079
0.000216454
0.000208132
0.000200103
0.000192359
0.00018489
0.000177687
0.000170741
0.000164045
0.000157591
0.00015137
0.000145375
0.000139598
0.000134032
0.000128671
0.000123508
0.000118535
0.000113747
0.000109137
0.000104699
0.000100428
9.63174e-05
9.23623e-05
8.85572e-05
8.48968e-05
8.13763e-05
7.79907e-05
7.47354e-05
7.16057e-05
6.85973e-05
6.57059e-05
6.29273e-05
6.02576e-05
5.76928e-05
5.52292e-05
5.28631e-05
5.05911e-05
4.84096e-05
4.63155e-05
4.43055e-05
4.23765e-05
4.05256e-05
3.87498e-05
3.70464e-05
3.54127e-05
3.38461e-05
3.2344e-05
3.09041e-05
2.95239e-05
2.82013e-05
2.6934e-05
2.572e-05
2.45572e-05
2.34436e-05
2.23774e-05
2.13568e-05
2.03801e-05
1.94454e-05
1.85514e-05
1.76964e-05
1.68789e-05
1.60975e-05
1.5351e-05
1.4638e-05
1.39573e-05
1.33079e-05
1.26885e-05
1.20983e-05
1.15363e-05
1.10017e-05
1.04937e-05
1.00117e-05
9.55502e-06
9.12329e-06
8.71611e-06
8.33326e-06
7.97464e-06
7.64031e-06
7.33048e-06
7.04555e-06
6.78615e-06
6.55311e-06
6.34753e-06
6.17079e-06
6.02457e-06
5.91088e-06
5.83211e-06
5.79111e-06
1.97132e-05
6.31968e-05
0.000110964
0.000163253
0.000220268
0.000282166
0.000349094
0.000421201
0.000498643
0.000581587
0.000670212
0.000764697
0.000865229
0.000971988
0.00108516
0.00120491
0.00133142
0.00146485
0.00160535
0.00175306
0.00190813
0.00207068
0.00224082
0.00241866
0.0026043
0.00279781
0.00299926
0.00320871
0.0034262
0.00365176
0.00388541
0.00412716
0.00437697
0.00463484
0.00490072
0.00517454
0.00545624
0.00574573
0.0060429
0.00634763
0.00665979
0.00697923
0.00730577
0.00763923
0.00797941
0.00832611
0.00867908
0.00903809
0.00940287
0.00977316
0.0101487
0.0105291
0.0109141
0.0113034
0.0116966
0.0120934
0.0124934
0.0128962
0.0133016
0.013709
0.0141181
0.0145284
0.0149397
0.0153513
0.015763
0.0161743
0.0165848
0.016994
0.0174015
0.0178068
0.0182096
0.0186094
0.0190057
0.0193981
0.0197863
0.0201697
0.020548
0.0209208
0.0212876
0.021648
0.0220017
0.0223483
0.0226874
0.0230187
0.0233418
0.0236563
0.0239619
0.0242585
0.0245455
0.0248228
0.0250901
0.0253471
0.0255936
0.0258293
0.0260541
0.0262678
0.0264702
0.0266611
0.0268403
0.0270079
0.0271636
0.0273073
0.0274391
0.0275588
0.0276663
0.0277617
0.027845
0.0279161
0.0279751
0.0280221
0.028057
0.0280799
0.028091
0.0280903
0.0280783
0.0280544
0.0280191
0.0279725
0.0279148
0.0278462
0.0277669
0.027677
0.0275768
0.0274665
0.0273464
0.0272165
0.0270773
0.0269289
0.0267716
0.0266056
0.0264312
0.0262487
0.0260584
0.0258606
0.0256554
0.0254432
0.0252244
0.0249991
0.0247676
0.0245303
0.0242875
0.0240394
0.0237863
0.0235285
0.0232663
0.023
0.0227298
0.0224561
0.0221791
0.021899
0.0216162
0.021331
0.0210434
0.020754
0.0204628
0.0201701
0.0198761
0.0195812
0.0192855
0.0189892
0.0186926
0.0183958
0.0180992
0.0178028
0.0175068
0.0172116
0.0169171
0.0166237
0.0163314
0.0160405
0.015751
0.0154632
0.0151771
0.0148929
0.0146108
0.0143308
0.0140531
0.0137778
0.013505
0.0132347
0.0129671
0.0127023
0.0124403
0.0121813
0.0119252
0.0116722
0.0114222
0.0111755
0.0109319
0.0106916
0.0104546
0.010221
0.00999067
0.00976376
0.00954027
0.00932022
0.00910361
0.00889047
0.0086808
0.00847461
0.0082719
0.00807266
0.00787689
0.00768459
0.00749575
0.00731035
0.00712839
0.00694983
0.00677467
0.00660289
0.00643445
0.00626934
0.00610752
0.00594898
0.00579368
0.00564158
0.00549267
0.00534689
0.00520422
0.00506463
0.00492807
0.00479451
0.0046639
0.00453621
0.00441141
0.00428944
0.00417026
0.00405385
0.00394014
0.00382911
0.00372071
0.00361489
0.00351162
0.00341084
0.00331252
0.00321662
0.00312309
0.00303188
0.00294296
0.00285628
0.0027718
0.00268948
0.00260927
0.00253114
0.00245504
0.00238093
0.00230877
0.00223851
0.00217013
0.00210358
0.00203882
0.0019758
0.00191451
0.00185488
0.0017969
0.00174051
0.00168569
0.0016324
0.00158061
0.00153027
0.00148136
0.00143383
0.00138767
0.00134283
0.00129928
0.00125699
0.00121594
0.00117608
0.00113739
0.00109985
0.00106341
0.00102806
0.000993765
0.000960498
0.000928233
0.000896944
0.000866604
0.00083719
0.000808677
0.00078104
0.000754256
0.000728302
0.000703156
0.000678795
0.000655198
0.000632345
0.000610213
0.000588784
0.000568038
0.000547955
0.000528517
0.000509706
0.000491502
0.00047389
0.000456852
0.000440372
0.000424433
0.00040902
0.000394116
0.000379708
0.00036578
0.000352318
0.000339309
0.000326738
0.000314593
0.00030286
0.000291527
0.000280582
0.000270013
0.000259808
0.000249956
0.000240447
0.000231269
0.000222412
0.000213866
0.000205621
0.000197668
0.000189997
0.000182599
0.000175466
0.000168589
0.00016196
0.00015557
0.000149413
0.000143479
0.000137762
0.000132255
0.000126951
0.000121842
0.000116924
0.000112188
0.000107629
0.000103241
9.90176e-05
9.4954e-05
9.10444e-05
8.72835e-05
8.36662e-05
8.01874e-05
7.68424e-05
7.36264e-05
7.05349e-05
6.75636e-05
6.47082e-05
6.19645e-05
5.93286e-05
5.67967e-05
5.43649e-05
5.20297e-05
4.97875e-05
4.7635e-05
4.5569e-05
4.35862e-05
4.16835e-05
3.98581e-05
3.8107e-05
3.64275e-05
3.48169e-05
3.32726e-05
3.17921e-05
3.03731e-05
2.90132e-05
2.77102e-05
2.64619e-05
2.52662e-05
2.41211e-05
2.30247e-05
2.19751e-05
2.09705e-05
2.00093e-05
1.90898e-05
1.82103e-05
1.73694e-05
1.65657e-05
1.57977e-05
1.50641e-05
1.43637e-05
1.36954e-05
1.3058e-05
1.24505e-05
1.1872e-05
1.13215e-05
1.07984e-05
1.03018e-05
9.83126e-06
9.38621e-06
8.96628e-06
8.57122e-06
8.20092e-06
7.8554e-06
7.53489e-06
7.23978e-06
6.97069e-06
6.72849e-06
6.51433e-06
6.32969e-06
6.17639e-06
6.05668e-06
5.97328e-06
5.92958e-06
1.93932e-05
6.21507e-05
0.000109062
0.000160362
0.00021629
0.000277055
0.00034285
0.000413858
0.000490261
0.000572243
0.00065999
0.000753687
0.000853519
0.000959669
0.00107232
0.00119163
0.00131779
0.00145095
0.00159126
0.00173888
0.00189393
0.00205655
0.00222685
0.00240494
0.00259093
0.00278488
0.00298689
0.003197
0.00341526
0.00364172
0.00387638
0.00411927
0.00437036
0.00462964
0.00489707
0.00517259
0.00545614
0.00574763
0.00604695
0.00635401
0.00666865
0.00699073
0.00732009
0.00765654
0.00799989
0.00834992
0.00870641
0.00906911
0.00943776
0.00981209
0.0101918
0.0105766
0.0109662
0.0113602
0.0117584
0.0121603
0.0125655
0.0129738
0.0133847
0.0137979
0.0142129
0.0146293
0.0150467
0.0154647
0.0158828
0.0163007
0.0167178
0.0171338
0.0175482
0.0179606
0.0183705
0.0187774
0.019181
0.0195808
0.0199763
0.0203671
0.0207529
0.0211331
0.0215075
0.0218754
0.0222367
0.0225908
0.0229374
0.0232761
0.0236066
0.0239285
0.0242415
0.0245453
0.0248396
0.025124
0.0253983
0.0256622
0.0259156
0.026158
0.0263895
0.0266096
0.0268183
0.0270154
0.0272007
0.0273741
0.0275355
0.0276848
0.0278219
0.0279467
0.0280593
0.0281595
0.0282473
0.0283229
0.0283861
0.028437
0.0284756
0.0285021
0.0285165
0.0285189
0.0285098
0.0284887
0.0284558
0.0284114
0.0283557
0.0282889
0.0282111
0.0281225
0.0280234
0.027914
0.0277945
0.0276651
0.0275261
0.0273777
0.0272202
0.0270538
0.0268788
0.0266955
0.0265042
0.0263051
0.0260986
0.0258848
0.0256642
0.025437
0.0252034
0.0249639
0.0247186
0.0244679
0.0242121
0.0239514
0.0236862
0.0234167
0.0231433
0.0228661
0.0225856
0.0223019
0.0220153
0.0217262
0.0214347
0.0211412
0.0208458
0.0205489
0.0202506
0.0199513
0.0196512
0.0193504
0.0190492
0.0187479
0.0184465
0.0181455
0.0178448
0.0175447
0.0172455
0.0169472
0.0166501
0.0163543
0.01606
0.0157673
0.0154763
0.0151873
0.0149003
0.0146154
0.0143329
0.0140527
0.013775
0.0135
0.0132276
0.012958
0.0126913
0.0124275
0.0121667
0.011909
0.0116545
0.0114032
0.0111551
0.0109103
0.0106689
0.0104308
0.0101962
0.00996495
0.00973721
0.00951295
0.00929219
0.00907495
0.00886123
0.00865104
0.00844439
0.00824127
0.00804167
0.00784561
0.00765305
0.007464
0.00727843
0.00709634
0.00691769
0.00674248
0.00657068
0.00640226
0.0062372
0.00607546
0.00591703
0.00576186
0.00560992
0.00546118
0.00531561
0.00517317
0.00503382
0.00489752
0.00476423
0.00463392
0.00450654
0.00438206
0.00426042
0.00414159
0.00402553
0.00391219
0.00380152
0.0036935
0.00358807
0.00348518
0.0033848
0.00328688
0.00319138
0.00309826
0.00300746
0.00291895
0.00283268
0.00274861
0.0026667
0.00258691
0.00250919
0.0024335
0.0023598
0.00228804
0.0022182
0.00215022
0.00208406
0.0020197
0.00195708
0.00189617
0.00183694
0.00177934
0.00172333
0.00166889
0.00161597
0.00156454
0.00151456
0.001466
0.00141883
0.00137302
0.00132852
0.00128531
0.00124335
0.00120262
0.00116309
0.00112472
0.00108748
0.00105135
0.0010163
0.0009823
0.000949323
0.000917342
0.000886332
0.000856266
0.00082712
0.00079887
0.000771491
0.00074496
0.000719254
0.000694351
0.000670228
0.000646864
0.000624238
0.000602329
0.000581118
0.000560585
0.00054071
0.000521476
0.000502864
0.000484855
0.000467433
0.000450581
0.000434282
0.00041852
0.00040328
0.000388545
0.000374301
0.000360534
0.000347229
0.000334372
0.00032195
0.00030995
0.000298358
0.000287163
0.000276353
0.000265914
0.000255837
0.000246109
0.00023672
0.00022766
0.000218917
0.000210483
0.000202346
0.000194498
0.00018693
0.000179632
0.000172596
0.000165813
0.000159275
0.000152974
0.000146902
0.000141053
0.000135417
0.000129989
0.000124762
0.000119728
0.000114881
0.000110215
0.000105724
0.000101402
9.7243e-05
9.32415e-05
8.93921e-05
8.56894e-05
8.21286e-05
7.87045e-05
7.54125e-05
7.22478e-05
6.9206e-05
6.62829e-05
6.3474e-05
6.07754e-05
5.81832e-05
5.56934e-05
5.33025e-05
5.10068e-05
4.88029e-05
4.66873e-05
4.4657e-05
4.27087e-05
4.08394e-05
3.90462e-05
3.73262e-05
3.56768e-05
3.40953e-05
3.2579e-05
3.11257e-05
2.97329e-05
2.83982e-05
2.71196e-05
2.58948e-05
2.47218e-05
2.35987e-05
2.25235e-05
2.14943e-05
2.05096e-05
1.95674e-05
1.86663e-05
1.78047e-05
1.69811e-05
1.61941e-05
1.54423e-05
1.47245e-05
1.40394e-05
1.3386e-05
1.27632e-05
1.21699e-05
1.16054e-05
1.10688e-05
1.05593e-05
1.00763e-05
9.61937e-06
9.18805e-06
8.78205e-06
8.40126e-06
8.04569e-06
7.71553e-06
7.41119e-06
7.1333e-06
6.88275e-06
6.66075e-06
6.46885e-06
6.30902e-06
6.18374e-06
6.09605e-06
6.04984e-06
1.91255e-05
6.12746e-05
0.00010747
0.000157935
0.000212921
0.000272673
0.000337422
0.000407387
0.00048278
0.000563804
0.000650659
0.000743537
0.000842627
0.000948112
0.00106017
0.00117897
0.00130469
0.00143747
0.00157748
0.00172486
0.00187974
0.00204227
0.00221254
0.00239069
0.0025768
0.00277096
0.00297325
0.00318373
0.00340246
0.00362948
0.0038648
0.00410844
0.0043604
0.00462066
0.00488917
0.0051659
0.00545077
0.00574371
0.00604462
0.00635338
0.00666987
0.00699393
0.00732541
0.00766412
0.00800987
0.00836245
0.00872163
0.00908717
0.00945881
0.00983627
0.0102193
0.0106075
0.0110007
0.0113984
0.0118004
0.0122063
0.0126157
0.0130283
0.0134437
0.0138614
0.014281
0.0147023
0.0151246
0.0155477
0.015971
0.0163941
0.0168167
0.0172381
0.0176581
0.0180761
0.0184917
0.0189045
0.0193139
0.0197197
0.0201212
0.0205181
0.0209099
0.0212963
0.0216767
0.0220509
0.0224183
0.0227786
0.0231313
0.0234762
0.0238128
0.0241409
0.0244599
0.0247698
0.02507
0.0253603
0.0256405
0.0259102
0.0261692
0.0264173
0.0266542
0.0268798
0.0270938
0.027296
0.0274864
0.0276648
0.027831
0.0279849
0.0281266
0.0282558
0.0283726
0.0284769
0.0285687
0.028648
0.0287148
0.0287691
0.028811
0.0288406
0.0288579
0.028863
0.0288564
0.0288378
0.0288071
0.0287647
0.0287108
0.0286456
0.0285693
0.028482
0.028384
0.0282755
0.0281567
0.0280278
0.0278892
0.027741
0.0275835
0.0274169
0.0272416
0.0270579
0.0268659
0.026666
0.0264585
0.0262436
0.0260217
0.0257931
0.025558
0.0253167
0.0250696
0.0248169
0.024559
0.0242961
0.0240286
0.0237566
0.0234806
0.0232008
0.0229174
0.0226309
0.0223414
0.0220492
0.0217546
0.0214578
0.0211592
0.0208589
0.0205572
0.0202544
0.0199507
0.0196463
0.0193415
0.0190364
0.0187314
0.0184265
0.018122
0.0178181
0.017515
0.0172129
0.0169118
0.0166121
0.0163138
0.0160172
0.0157223
0.0154293
0.0151383
0.0148495
0.014563
0.0142789
0.0139973
0.0137183
0.013442
0.0131685
0.012898
0.0126303
0.0123658
0.0121043
0.011846
0.0115909
0.0113391
0.0110907
0.0108456
0.010604
0.0103657
0.010131
0.00989977
0.00967207
0.00944791
0.0092273
0.00901027
0.0087968
0.00858692
0.00838061
0.00817787
0.00797871
0.0077831
0.00759104
0.00740252
0.00721752
0.00703601
0.00685798
0.00668341
0.00651227
0.00634453
0.00618017
0.00601915
0.00586145
0.00570703
0.00555585
0.00540789
0.0052631
0.00512144
0.00498289
0.00484739
0.00471491
0.00458541
0.00445885
0.00433517
0.00421435
0.00409634
0.00398109
0.00386857
0.00375872
0.0036515
0.00354687
0.00344479
0.0033452
0.00324808
0.00315336
0.00306101
0.00297099
0.00288324
0.00279773
0.00271441
0.00263324
0.00255418
0.00247718
0.0024022
0.0023292
0.00225815
0.00218898
0.00212168
0.00205619
0.00199248
0.00193051
0.00187024
0.00181163
0.00175464
0.00169924
0.00164539
0.00159305
0.00154219
0.00149278
0.00144477
0.00139814
0.00135286
0.00130888
0.00126618
0.00122472
0.00118448
0.00114543
0.00110753
0.00107075
0.00103507
0.00100046
0.000966896
0.00093434
0.000902772
0.000872165
0.000842494
0.000813734
0.000785861
0.00075885
0.000732679
0.000707324
0.000682763
0.000658974
0.000635937
0.000613629
0.000592031
0.000571123
0.000550886
0.0005313
0.000512346
0.000494008
0.000476266
0.000459105
0.000442506
0.000426454
0.000410932
0.000395926
0.000381419
0.000367397