/*--------------------------------*- C++ -*----------------------------------*\
  =========                 |
  \\      /  F ield         | OpenFOAM: The Open Source CFD Toolbox
   \\    /   O peration     | Website:  https://openfoam.org
    \\  /    A nd           | Version:  dev
     \\/     M anipulation  |
\*---------------------------------------------------------------------------*/
FoamFile
{
    format      ascii;
    class       volScalarField;
    location    "0.52";
    object      Exp1;
}
// * * * * * * * * * * * * * * * * * * * * * * * * * * * * * * * * * * * * * //

dimensions      [0 0 0 0 0 0 0];

internalField   uniform 0;

boundaryField
{
    frontAndBack
    {
        type            empty;
    }
    inlet
    {
        type            calculated;
        value           uniform 0;
    }
    outlet
    {
        type            calculated;
        value           uniform 0;
    }
    substrate
    {
        type            calculated;
        value           nonuniform List<scalar> 
400
(
1.72287e-13
5.48738e-13
9.62885e-13
1.41298e-12
1.89931e-12
2.42355e-12
2.98734e-12
3.59239e-12
4.24062e-12
4.93412e-12
5.6751e-12
6.46589e-12
7.3089e-12
8.2066e-12
9.16155e-12
1.01763e-11
1.12536e-11
1.2396e-11
1.36063e-11
1.48872e-11
1.62415e-11
1.76721e-11
1.91819e-11
2.07738e-11
2.24509e-11
2.4216e-11
2.60725e-11
2.80234e-11
3.00719e-11
3.22213e-11
3.44751e-11
3.68366e-11
3.93093e-11
4.18968e-11
4.46028e-11
4.7431e-11
5.03851e-11
5.34691e-11
5.66869e-11
6.00426e-11
6.35404e-11
6.71845e-11
7.09791e-11
7.49288e-11
7.90381e-11
8.33116e-11
8.7754e-11
9.23701e-11
9.7165e-11
1.02144e-10
1.07311e-10
1.12673e-10
1.18235e-10
1.24001e-10
1.29979e-10
1.36173e-10
1.4259e-10
1.49236e-10
1.56116e-10
1.63238e-10
1.70608e-10
1.78232e-10
1.86117e-10
1.9427e-10
2.02699e-10
2.11411e-10
2.20413e-10
2.29713e-10
2.39318e-10
2.49238e-10
2.59479e-10
2.70051e-10
2.80961e-10
2.9222e-10
3.03835e-10
3.15817e-10
3.28174e-10
3.40916e-10
3.54053e-10
3.67596e-10
3.81554e-10
3.95938e-10
4.1076e-10
4.26029e-10
4.41758e-10
4.57958e-10
4.74641e-10
4.91818e-10
5.09504e-10
5.27709e-10
5.46448e-10
5.65733e-10
5.85579e-10
6.05998e-10
6.27005e-10
6.48614e-10
6.70841e-10
6.937e-10
7.17207e-10
7.41377e-10
7.66228e-10
7.91774e-10
8.18034e-10
8.45023e-10
8.72761e-10
9.01263e-10
9.3055e-10
9.60639e-10
9.91549e-10
1.0233e-09
1.05591e-09
1.0894e-09
1.1238e-09
1.15911e-09
1.19537e-09
1.2326e-09
1.27081e-09
1.31004e-09
1.35029e-09
1.39161e-09
1.434e-09
1.4775e-09
1.52213e-09
1.56792e-09
1.61489e-09
1.66306e-09
1.71247e-09
1.76315e-09
1.81511e-09
1.86839e-09
1.92301e-09
1.97901e-09
2.03641e-09
2.09525e-09
2.15556e-09
2.21736e-09
2.28069e-09
2.34558e-09
2.41207e-09
2.48018e-09
2.54995e-09
2.62141e-09
2.69461e-09
2.76957e-09
2.84632e-09
2.92492e-09
3.00538e-09
3.08776e-09
3.17209e-09
3.2584e-09
3.34674e-09
3.43714e-09
3.52965e-09
3.6243e-09
3.72114e-09
3.82021e-09
3.92154e-09
4.02519e-09
4.1312e-09
4.2396e-09
4.35045e-09
4.46378e-09
4.57965e-09
4.6981e-09
4.81917e-09
4.94291e-09
5.06937e-09
5.19859e-09
5.33063e-09
5.46553e-09
5.60333e-09
5.7441e-09
5.88788e-09
6.03471e-09
6.18466e-09
6.33777e-09
6.49408e-09
6.65367e-09
6.81656e-09
6.98283e-09
7.15251e-09
7.32567e-09
7.50236e-09
7.68262e-09
7.86652e-09
8.05411e-09
8.24544e-09
8.44057e-09
8.63955e-09
8.84244e-09
9.04929e-09
9.26016e-09
9.4751e-09
9.69417e-09
9.91742e-09
1.01449e-08
1.03767e-08
1.06128e-08
1.08534e-08
1.10984e-08
1.13479e-08
1.16021e-08
1.18608e-08
1.21242e-08
1.23924e-08
1.26653e-08
1.29431e-08
1.32259e-08
1.35135e-08
1.38062e-08
1.4104e-08
1.44069e-08
1.47149e-08
1.50282e-08
1.53467e-08
1.56706e-08
1.59999e-08
1.63346e-08
1.66748e-08
1.70205e-08
1.73718e-08
1.77287e-08
1.80913e-08
1.84596e-08
1.88337e-08
1.92136e-08
1.95993e-08
1.9991e-08
2.03885e-08
2.07921e-08
2.12017e-08
2.16173e-08
2.2039e-08
2.24669e-08
2.29009e-08
2.33411e-08
2.37876e-08
2.42403e-08
2.46993e-08
2.51647e-08
2.56364e-08
2.61144e-08
2.65989e-08
2.70897e-08
2.75871e-08
2.80908e-08
2.86011e-08
2.91178e-08
2.9641e-08
3.01708e-08
3.07071e-08
3.12499e-08
3.17992e-08
3.23551e-08
3.29175e-08
3.34865e-08
3.4062e-08
3.46441e-08
3.52326e-08
3.58277e-08
3.64293e-08
3.70374e-08
3.7652e-08
3.8273e-08
3.89005e-08
3.95343e-08
4.01746e-08
4.08212e-08
4.14742e-08
4.21334e-08
4.27989e-08
4.34706e-08
4.41485e-08
4.48325e-08
4.55226e-08
4.62187e-08
4.69208e-08
4.76288e-08
4.83427e-08
4.90624e-08
4.97879e-08
5.0519e-08
5.12557e-08
5.19979e-08
5.27456e-08
5.34986e-08
5.4257e-08
5.50205e-08
5.57892e-08
5.65628e-08
5.73415e-08
5.81249e-08
5.89131e-08
5.97059e-08
6.05032e-08
6.1305e-08
6.21111e-08
6.29213e-08
6.37356e-08
6.45539e-08
6.5376e-08
6.62018e-08
6.70312e-08
6.7864e-08
6.87001e-08
6.95394e-08
7.03817e-08
7.12269e-08
7.20749e-08
7.29254e-08
7.37783e-08
7.46336e-08
7.54909e-08
7.63503e-08
7.72114e-08
7.80742e-08
7.89384e-08
7.98039e-08
8.06706e-08
8.15383e-08
8.24067e-08
8.32757e-08
8.41452e-08
8.50149e-08
8.58847e-08
8.67543e-08
8.76236e-08
8.84925e-08
8.93606e-08
9.02278e-08
9.1094e-08
9.19589e-08
9.28224e-08
9.36842e-08
9.45441e-08
9.54019e-08
9.62575e-08
9.71107e-08
9.79611e-08
9.88087e-08
9.96533e-08
1.00495e-07
1.01332e-07
1.02166e-07
1.02997e-07
1.03823e-07
1.04645e-07
1.05462e-07
1.06275e-07
1.07082e-07
1.07885e-07
1.08682e-07
1.09474e-07
1.1026e-07
1.1104e-07
1.11814e-07
1.12582e-07
1.13343e-07
1.14098e-07
1.14845e-07
1.15585e-07
1.16318e-07
1.17044e-07
1.17761e-07
1.18471e-07
1.19172e-07
1.19865e-07
1.20549e-07
1.21224e-07
1.2189e-07
1.22547e-07
1.23194e-07
1.23831e-07
1.24457e-07
1.25073e-07
1.25678e-07
1.26272e-07
1.26853e-07
1.27423e-07
1.2798e-07
1.28523e-07
1.29053e-07
1.29567e-07
1.30067e-07
1.30551e-07
1.31017e-07
1.31465e-07
1.31894e-07
1.32303e-07
1.32689e-07
1.33052e-07
1.33389e-07
1.33699e-07
1.33979e-07
1.34227e-07
1.34441e-07
1.34617e-07
1.34753e-07
1.34846e-07
1.34894e-07
)
;
    }
    Wall
    {
        type            calculated;
        value           nonuniform List<scalar> 
400
(
1.72284e-13
5.48728e-13
9.62866e-13
1.41295e-12
1.89927e-12
2.4235e-12
2.98727e-12
3.5923e-12
4.24051e-12
4.93398e-12
5.67493e-12
6.46568e-12
7.30865e-12
8.20632e-12
9.16122e-12
1.0176e-11
1.12532e-11
1.23955e-11
1.36057e-11
1.48866e-11
1.62409e-11
1.76714e-11
1.91812e-11
2.0773e-11
2.245e-11
2.42151e-11
2.60715e-11
2.80223e-11
3.00707e-11
3.22201e-11
3.44738e-11
3.68352e-11
3.93079e-11
4.18953e-11
4.46012e-11
4.74293e-11
5.03833e-11
5.34673e-11
5.6685e-11
6.00406e-11
6.35383e-11
6.71822e-11
7.09768e-11
7.49264e-11
7.90356e-11
8.33089e-11
8.77512e-11
9.23672e-11
9.71619e-11
1.0214e-10
1.07308e-10
1.1267e-10
1.18231e-10
1.23998e-10
1.29975e-10
1.36169e-10
1.42586e-10
1.49231e-10
1.56112e-10
1.63233e-10
1.70603e-10
1.78226e-10
1.86112e-10
1.94265e-10
2.02694e-10
2.11405e-10
2.20407e-10
2.29707e-10
2.39312e-10
2.49231e-10
2.59472e-10
2.70043e-10
2.80954e-10
2.92212e-10
3.03827e-10
3.15808e-10
3.28165e-10
3.40907e-10
3.54044e-10
3.67586e-10
3.81544e-10
3.95928e-10
4.10749e-10
4.26018e-10
4.41746e-10
4.57946e-10
4.74628e-10
4.91806e-10
5.09491e-10
5.27696e-10
5.46434e-10
5.65719e-10
5.85564e-10
6.05982e-10
6.26989e-10
6.48597e-10
6.70824e-10
6.93682e-10
7.17189e-10
7.41359e-10
7.66208e-10
7.91754e-10
8.18013e-10
8.45002e-10
8.72739e-10
9.01241e-10
9.30527e-10
9.60615e-10
9.91524e-10
1.02327e-09
1.05589e-09
1.08938e-09
1.12377e-09
1.15909e-09
1.19534e-09
1.23257e-09
1.27078e-09
1.31e-09
1.35026e-09
1.39157e-09
1.43397e-09
1.47747e-09
1.5221e-09
1.56788e-09
1.61485e-09
1.66302e-09
1.71243e-09
1.7631e-09
1.81506e-09
1.86834e-09
1.92296e-09
1.97896e-09
2.03637e-09
2.0952e-09
2.15551e-09
2.21731e-09
2.28064e-09
2.34553e-09
2.41201e-09
2.48012e-09
2.54989e-09
2.62135e-09
2.69455e-09
2.7695e-09
2.84626e-09
2.92485e-09
3.00532e-09
3.08769e-09
3.17202e-09
3.25833e-09
3.34666e-09
3.43706e-09
3.52957e-09
3.62422e-09
3.72106e-09
3.82012e-09
3.92146e-09
4.0251e-09
4.13111e-09
4.23951e-09
4.35035e-09
4.46369e-09
4.57955e-09
4.69799e-09
4.81906e-09
4.9428e-09
5.06925e-09
5.19848e-09
5.33051e-09
5.4654e-09
5.60321e-09
5.74397e-09
5.88775e-09
6.03458e-09
6.18452e-09
6.33763e-09
6.49394e-09
6.65352e-09
6.81641e-09
6.98268e-09
7.15236e-09
7.32551e-09
7.50219e-09
7.68246e-09
7.86635e-09
8.05394e-09
8.24526e-09
8.44039e-09
8.63936e-09
8.84225e-09
9.04909e-09
9.25996e-09
9.47489e-09
9.69396e-09
9.91721e-09
1.01447e-08
1.03765e-08
1.06126e-08
1.08532e-08
1.10982e-08
1.13477e-08
1.16018e-08
1.18605e-08
1.2124e-08
1.23921e-08
1.26651e-08
1.29429e-08
1.32256e-08
1.35132e-08
1.38059e-08
1.41037e-08
1.44066e-08
1.47146e-08
1.50279e-08
1.53464e-08
1.56703e-08
1.59996e-08
1.63343e-08
1.66744e-08
1.70201e-08
1.73714e-08
1.77283e-08
1.80909e-08
1.84592e-08
1.88333e-08
1.92132e-08
1.95989e-08
1.99906e-08
2.03881e-08
2.07917e-08
2.12012e-08
2.16169e-08
2.20386e-08
2.24664e-08
2.29005e-08
2.33407e-08
2.37871e-08
2.42398e-08
2.46988e-08
2.51642e-08
2.56359e-08
2.61139e-08
2.65983e-08
2.70892e-08
2.75865e-08
2.80903e-08
2.86005e-08
2.91172e-08
2.96405e-08
3.01702e-08
3.07065e-08
3.12493e-08
3.17986e-08
3.23545e-08
3.29169e-08
3.34859e-08
3.40614e-08
3.46434e-08
3.5232e-08
3.58271e-08
3.64286e-08
3.70367e-08
3.76513e-08
3.82723e-08
3.88997e-08
3.95336e-08
4.01739e-08
4.08205e-08
4.14734e-08
4.21326e-08
4.27981e-08
4.34698e-08
4.41477e-08
4.48317e-08
4.55218e-08
4.62179e-08
4.692e-08
4.7628e-08
4.83418e-08
4.90615e-08
4.97869e-08
5.0518e-08
5.12547e-08
5.19969e-08
5.27446e-08
5.34976e-08
5.4256e-08
5.50195e-08
5.57881e-08
5.65618e-08
5.73404e-08
5.81239e-08
5.8912e-08
5.97048e-08
6.05022e-08
6.13039e-08
6.211e-08
6.29202e-08
6.37345e-08
6.45528e-08
6.53749e-08
6.62007e-08
6.703e-08
6.78628e-08
6.86989e-08
6.95382e-08
7.03805e-08
7.12257e-08
7.20736e-08
7.29241e-08
7.37771e-08
7.46323e-08
7.54897e-08
7.6349e-08
7.72101e-08
7.80729e-08
7.89371e-08
7.98026e-08
8.06693e-08
8.15369e-08
8.24054e-08
8.32744e-08
8.41438e-08
8.50135e-08
8.58833e-08
8.67529e-08
8.76222e-08
8.84911e-08
8.93592e-08
9.02265e-08
9.10926e-08
9.19575e-08
9.2821e-08
9.36827e-08
9.45427e-08
9.54005e-08
9.62561e-08
9.71092e-08
9.79597e-08
9.88073e-08
9.96518e-08
1.00493e-07
1.01331e-07
1.02165e-07
1.02995e-07
1.03821e-07
1.04643e-07
1.0546e-07
1.06273e-07
1.07081e-07
1.07883e-07
1.08681e-07
1.09473e-07
1.10259e-07
1.11039e-07
1.11813e-07
1.1258e-07
1.13342e-07
1.14096e-07
1.14843e-07
1.15584e-07
1.16317e-07
1.17042e-07
1.1776e-07
1.18469e-07
1.1917e-07
1.19863e-07
1.20547e-07
1.21223e-07
1.21889e-07
1.22545e-07
1.23192e-07
1.23829e-07
1.24456e-07
1.25072e-07
1.25677e-07
1.2627e-07
1.26852e-07
1.27421e-07
1.27978e-07
1.28521e-07
1.29051e-07
1.29566e-07
1.30066e-07
1.30549e-07
1.31015e-07
1.31464e-07
1.31893e-07
1.32301e-07
1.32688e-07
1.3305e-07
1.33388e-07
1.33697e-07
1.33978e-07
1.34226e-07
1.3444e-07
1.34616e-07
1.34752e-07
1.34845e-07
1.34893e-07
)
;
    }
}


// ************************************************************************* //
