/*--------------------------------*- C++ -*----------------------------------*\
  =========                 |
  \\      /  F ield         | OpenFOAM: The Open Source CFD Toolbox
   \\    /   O peration     | Website:  https://openfoam.org
    \\  /    A nd           | Version:  dev
     \\/     M anipulation  |
\*---------------------------------------------------------------------------*/
FoamFile
{
    format      ascii;
    class       volScalarField;
    location    "0.52";
    object      growth;
}
// * * * * * * * * * * * * * * * * * * * * * * * * * * * * * * * * * * * * * //

dimensions      [0 0 0 0 0 0 0];

internalField   uniform 0;

boundaryField
{
    frontAndBack
    {
        type            empty;
    }
    inlet
    {
        type            calculated;
        value           uniform 0;
    }
    outlet
    {
        type            calculated;
        value           uniform 0;
    }
    substrate
    {
        type            calculated;
        value           nonuniform List<scalar> 
400
(
0.723392
0.709436
0.699197
0.689838
0.680945
0.672481
0.664346
0.656453
0.648737
0.641155
0.633672
0.626261
0.618904
0.611584
0.604291
0.597014
0.589749
0.582492
0.575238
0.567987
0.560739
0.553493
0.54625
0.539012
0.53178
0.524556
0.517342
0.510141
0.502955
0.495786
0.488637
0.481511
0.474409
0.467335
0.46029
0.453278
0.4463
0.43936
0.432458
0.425598
0.418782
0.412011
0.405288
0.398614
0.391991
0.385422
0.378907
0.372449
0.366049
0.359708
0.353428
0.34721
0.341056
0.334966
0.328941
0.322983
0.317092
0.31127
0.305516
0.299833
0.294219
0.288677
0.283206
0.277807
0.27248
0.267225
0.262044
0.256935
0.251899
0.246936
0.242046
0.237229
0.232486
0.227815
0.223216
0.218691
0.214237
0.209855
0.205545
0.201305
0.197137
0.193038
0.189009
0.18505
0.181159
0.177337
0.173581
0.169893
0.166271
0.162715
0.159223
0.155796
0.152433
0.149132
0.145893
0.142716
0.139599
0.136542
0.133544
0.130604
0.127722
0.124896
0.122127
0.119412
0.116752
0.114145
0.11159
0.109088
0.106636
0.104235
0.101883
0.0995798
0.0973243
0.0951159
0.0929536
0.0908368
0.0887647
0.0867364
0.0847512
0.0828084
0.0809071
0.0790467
0.0772263
0.0754452
0.0737028
0.0719983
0.0703309
0.0687
0.0671049
0.0655448
0.0640192
0.0625273
0.0610684
0.059642
0.0582473
0.0568838
0.0555508
0.0542476
0.0529738
0.0517286
0.0505116
0.049322
0.0481594
0.0470233
0.0459129
0.0448278
0.0437675
0.0427315
0.0417192
0.0407301
0.0397637
0.0388195
0.0378971
0.036996
0.0361158
0.0352559
0.0344159
0.0335954
0.032794
0.0320112
0.0312467
0.0305
0.0297707
0.0290585
0.0283629
0.0276837
0.0270203
0.0263726
0.02574
0.0251224
0.0245193
0.0239304
0.0233554
0.0227939
0.0222458
0.0217106
0.0211881
0.0206779
0.0201798
0.0196936
0.0192189
0.0187555
0.0183031
0.0178615
0.0174303
0.0170095
0.0165987
0.0161977
0.0158062
0.0154241
0.0150512
0.0146871
0.0143318
0.013985
0.0136465
0.013316
0.0129936
0.0126788
0.0123716
0.0120718
0.0117792
0.0114936
0.0112148
0.0109428
0.0106773
0.0104183
0.0101654
0.00991865
0.00967784
0.00944283
0.00921349
0.00898968
0.00877128
0.00855814
0.00835015
0.00814719
0.00794913
0.00775585
0.00756725
0.00738321
0.00720362
0.00702838
0.00685737
0.00669051
0.00652769
0.00636881
0.00621378
0.0060625
0.00591489
0.00577087
0.00563033
0.0054932
0.0053594
0.00522884
0.00510145
0.00497716
0.00485588
0.00473754
0.00462208
0.00450942
0.0043995
0.00429226
0.00418761
0.00408551
0.00398589
0.0038887
0.00379386
0.00370134
0.00361106
0.00352298
0.00343704
0.0033532
0.00327139
0.00319157
0.0031137
0.00303772
0.0029636
0.00289127
0.00282071
0.00275187
0.0026847
0.00261917
0.00255524
0.00249286
0.002432
0.00237263
0.0023147
0.00225818
0.00220305
0.00214925
0.00209677
0.00204557
0.00199561
0.00194688
0.00189933
0.00185294
0.00180768
0.00176353
0.00172045
0.00167842
0.00163742
0.00159742
0.0015584
0.00152033
0.00148318
0.00144694
0.00141159
0.0013771
0.00134345
0.00131062
0.0012786
0.00124735
0.00121687
0.00118713
0.00115812
0.00112982
0.0011022
0.00107527
0.00104898
0.00102334
0.000998331
0.000973929
0.000950122
0.000926896
0.000904238
0.000882133
0.000860568
0.000839529
0.000819005
0.000798981
0.000779447
0.000760389
0.000741798
0.00072366
0.000705965
0.000688703
0.000671862
0.000655433
0.000639405
0.000623768
0.000608514
0.000593632
0.000579114
0.00056495
0.000551133
0.000537653
0.000524502
0.000511673
0.000499157
0.000486947
0.000475036
0.000463415
0.000452079
0.00044102
0.00043023
0.000419705
0.000409437
0.00039942
0.000389648
0.000380114
0.000370814
0.000361741
0.00035289
0.000344256
0.000335833
0.000327616
0.0003196
0.000311781
0.000304153
0.000296711
0.000289453
0.000282372
0.000275465
0.000268728
0.000262156
0.000255746
0.000249494
0.000243396
0.000237448
0.000231648
0.000225991
0.000220475
0.000215096
0.000209852
0.000204739
0.000199755
0.000194897
0.000190162
0.000185549
0.000181055
0.000176678
0.000172416
0.000168267
0.00016423
0.000160304
0.000156487
0.000152779
0.000149178
0.000145686
0.000142301
0.000139025
0.000135857
0.0001328
0.000129855
0.000127024
0.000124311
0.000121718
0.00011925
0.000116912
0.000114711
0.000112653
0.000110747
0.000109002
0.000107429
0.000106039
0.000104845
0.000103861
0.000103103
0.000102584
0.00010232
)
;
    }
    Wall
    {
        type            calculated;
        value           nonuniform List<scalar> 
400
(
0.723392
0.709436
0.699198
0.689839
0.680945
0.67248
0.664345
0.656451
0.648735
0.641153
0.633669
0.626259
0.618901
0.611582
0.604288
0.597012
0.589747
0.58249
0.575236
0.567986
0.560737
0.553491
0.546249
0.539011
0.531779
0.524555
0.517341
0.510141
0.502955
0.495786
0.488637
0.481511
0.474409
0.467335
0.460291
0.453279
0.446301
0.439361
0.432459
0.425599
0.418783
0.412012
0.405289
0.398615
0.391993
0.385423
0.378909
0.372451
0.366051
0.35971
0.35343
0.347212
0.341058
0.334967
0.328943
0.322985
0.317094
0.311272
0.305518
0.299835
0.294221
0.288679
0.283208
0.277809
0.272482
0.267227
0.262046
0.256937
0.251901
0.246938
0.242048
0.237231
0.232488
0.227817
0.223219
0.218693
0.214239
0.209857
0.205547
0.201307
0.197139
0.19304
0.189011
0.185052
0.181161
0.177338
0.173583
0.169895
0.166273
0.162717
0.159225
0.155798
0.152434
0.149133
0.145895
0.142717
0.1396
0.136543
0.133545
0.130606
0.127723
0.124898
0.122128
0.119413
0.116753
0.114146
0.111591
0.109089
0.106637
0.104236
0.101884
0.0995809
0.0973254
0.0951169
0.0929547
0.0908379
0.0887657
0.0867374
0.0847522
0.0828093
0.0809081
0.0790476
0.0772272
0.0754461
0.0737037
0.0719991
0.0703318
0.0687008
0.0671057
0.0655456
0.06402
0.062528
0.0610691
0.0596427
0.058248
0.0568845
0.0555514
0.0542483
0.0529744
0.0517293
0.0505122
0.0493226
0.0481601
0.0470238
0.0459135
0.0448284
0.0437681
0.042732
0.0417197
0.0407306
0.0397642
0.03882
0.0378976
0.0369965
0.0361162
0.0352563
0.0344163
0.0335959
0.0327944
0.0320116
0.0312471
0.0305004
0.0297711
0.0290589
0.0283633
0.027684
0.0270207
0.0263729
0.0257404
0.0251227
0.0245196
0.0239307
0.0233557
0.0227943
0.0222461
0.0217109
0.0211883
0.0206782
0.0201801
0.0196939
0.0192192
0.0187558
0.0183034
0.0178617
0.0174306
0.0170097
0.0165989
0.0161979
0.0158065
0.0154244
0.0150514
0.0146873
0.014332
0.0139852
0.0136466
0.0133162
0.0129937
0.012679
0.0123718
0.012072
0.0117793
0.0114937
0.011215
0.010943
0.0106775
0.0104184
0.0101656
0.0099188
0.00967798
0.00944297
0.00921363
0.00898982
0.00877141
0.00855827
0.00835028
0.00814732
0.00794925
0.00775598
0.00756737
0.00738333
0.00720374
0.00702849
0.00685748
0.00669062
0.00652779
0.00636891
0.00621388
0.0060626
0.00591499
0.00577096
0.00563042
0.00549329
0.00535949
0.00522893
0.00510154
0.00497724
0.00485596
0.00473762
0.00462216
0.0045095
0.00439958
0.00429233
0.00418768
0.00408558
0.00398596
0.00388877
0.00379393
0.0037014
0.00361112
0.00352304
0.0034371
0.00335326
0.00327145
0.00319163
0.00311376
0.00303778
0.00296365
0.00289132
0.00282076
0.00275192
0.00268475
0.00261922
0.00255528
0.0024929
0.00243205
0.00237267
0.00231474
0.00225823
0.00220309
0.00214929
0.00209681
0.00204561
0.00199565
0.00194691
0.00189936
0.00185297
0.00180772
0.00176356
0.00172048
0.00167846
0.00163745
0.00159745
0.00155843
0.00152035
0.00148321
0.00144697
0.00141162
0.00137713
0.00134348
0.00131065
0.00127862
0.00124738
0.00121689
0.00118716
0.00115814
0.00112984
0.00110222
0.00107529
0.001049
0.00102336
0.00099835
0.000973947
0.00095014
0.000926914
0.000904255
0.00088215
0.000860584
0.000839545
0.00081902
0.000798996
0.000779461
0.000760404
0.000741811
0.000723673
0.000705978
0.000688716
0.000671875
0.000655445
0.000639417
0.00062378
0.000608525
0.000593643
0.000579124
0.000564961
0.000551143
0.000537663
0.000524512
0.000511683
0.000499167
0.000486956
0.000475045
0.000463424
0.000452087
0.000441028
0.000430238
0.000419713
0.000409444
0.000399427
0.000389655
0.000380121
0.000370821
0.000361748
0.000352897
0.000344262
0.000335839
0.000327622
0.000319606
0.000311786
0.000304158
0.000296717
0.000289458
0.000282377
0.00027547
0.000268732
0.000262161
0.00025575
0.000249498
0.0002434
0.000237452
0.000231652
0.000225995
0.000220479
0.0002151
0.000209855
0.000204742
0.000199758
0.0001949
0.000190165
0.000185552
0.000181058
0.000176681
0.000172418
0.00016827
0.000164233
0.000160306
0.000156489
0.000152781
0.000149181
0.000145688
0.000142304
0.000139027
0.00013586
0.000132802
0.000129857
0.000127026
0.000124312
0.000121719
0.000119252
0.000116914
0.000114713
0.000112655
0.000110749
0.000109004
0.00010743
0.00010604
0.000104846
0.000103863
0.000103105
0.000102586
0.000102321
)
;
    }
}


// ************************************************************************* //
