/*--------------------------------*- C++ -*----------------------------------*\
  =========                 |
  \\      /  F ield         | OpenFOAM: The Open Source CFD Toolbox
   \\    /   O peration     | Website:  https://openfoam.org
    \\  /    A nd           | Version:  dev
     \\/     M anipulation  |
\*---------------------------------------------------------------------------*/
FoamFile
{
    format      ascii;
    class       volScalarField;
    location    "0.52";
    object      N1;
}
// * * * * * * * * * * * * * * * * * * * * * * * * * * * * * * * * * * * * * //

dimensions      [0 0 0 0 0 0 0];

internalField   nonuniform List<scalar> 
8000
(
1.30809e-12
4.16732e-12
7.31385e-12
1.07345e-11
1.44314e-11
1.84175e-11
2.27053e-11
2.73079e-11
3.22399e-11
3.75174e-11
4.31573e-11
4.91775e-11
5.55965e-11
6.24332e-11
6.97072e-11
7.74384e-11
8.56471e-11
9.43537e-11
1.03579e-10
1.13345e-10
1.23673e-10
1.34584e-10
1.461e-10
1.58246e-10
1.71043e-10
1.84515e-10
1.98685e-10
2.13579e-10
2.29221e-10
2.45637e-10
2.62852e-10
2.80893e-10
2.99786e-10
3.1956e-10
3.40242e-10
3.61861e-10
3.84446e-10
4.08028e-10
4.32637e-10
4.58304e-10
4.85061e-10
5.12941e-10
5.41978e-10
5.72205e-10
6.03657e-10
6.3637e-10
6.70381e-10
7.05726e-10
7.42445e-10
7.80575e-10
8.20157e-10
8.61232e-10
9.03841e-10
9.48027e-10
9.93834e-10
1.04131e-09
1.09049e-09
1.14143e-09
1.19418e-09
1.24878e-09
1.30529e-09
1.36376e-09
1.42423e-09
1.48677e-09
1.55142e-09
1.61825e-09
1.68731e-09
1.75866e-09
1.83236e-09
1.90848e-09
1.98707e-09
2.06821e-09
2.15195e-09
2.23837e-09
2.32753e-09
2.41951e-09
2.51437e-09
2.6122e-09
2.71307e-09
2.81706e-09
2.92424e-09
3.03471e-09
3.14853e-09
3.2658e-09
3.38661e-09
3.51104e-09
3.63918e-09
3.77114e-09
3.907e-09
4.04686e-09
4.19082e-09
4.33898e-09
4.49146e-09
4.64835e-09
4.80976e-09
4.9758e-09
5.1466e-09
5.32226e-09
5.5029e-09
5.68865e-09
5.87963e-09
6.07597e-09
6.27779e-09
6.48522e-09
6.69841e-09
6.91749e-09
7.1426e-09
7.37388e-09
7.61148e-09
7.85554e-09
8.10623e-09
8.36369e-09
8.62809e-09
8.89958e-09
9.17833e-09
9.46451e-09
9.75829e-09
1.00598e-08
1.03693e-08
1.0687e-08
1.10129e-08
1.13474e-08
1.16905e-08
1.20426e-08
1.24037e-08
1.27741e-08
1.3154e-08
1.35436e-08
1.39431e-08
1.43528e-08
1.47728e-08
1.52034e-08
1.56448e-08
1.60973e-08
1.6561e-08
1.70362e-08
1.75232e-08
1.80222e-08
1.85335e-08
1.90572e-08
1.95938e-08
2.01433e-08
2.07062e-08
2.12826e-08
2.18729e-08
2.24773e-08
2.30961e-08
2.37296e-08
2.4378e-08
2.50418e-08
2.57212e-08
2.64164e-08
2.71278e-08
2.78557e-08
2.86005e-08
2.93623e-08
3.01417e-08
3.09388e-08
3.1754e-08
3.25877e-08
3.34402e-08
3.43118e-08
3.52029e-08
3.61138e-08
3.70449e-08
3.79966e-08
3.89691e-08
3.99629e-08
4.09784e-08
4.20159e-08
4.30757e-08
4.41583e-08
4.52641e-08
4.63934e-08
4.75466e-08
4.87241e-08
4.99263e-08
5.11536e-08
5.24064e-08
5.36852e-08
5.49902e-08
5.63219e-08
5.76808e-08
5.90672e-08
6.04816e-08
6.19243e-08
6.33958e-08
6.48966e-08
6.64269e-08
6.79873e-08
6.95782e-08
7.12e-08
7.28531e-08
7.45379e-08
7.6255e-08
7.80047e-08
7.97873e-08
8.16035e-08
8.34536e-08
8.5338e-08
8.72571e-08
8.92115e-08
9.12014e-08
9.32274e-08
9.52899e-08
9.73892e-08
9.95259e-08
1.017e-07
1.03913e-07
1.06164e-07
1.08454e-07
1.10783e-07
1.13153e-07
1.15562e-07
1.18012e-07
1.20503e-07
1.23036e-07
1.2561e-07
1.28226e-07
1.30885e-07
1.33587e-07
1.36332e-07
1.39121e-07
1.41953e-07
1.4483e-07
1.47752e-07
1.50719e-07
1.53731e-07
1.56789e-07
1.59893e-07
1.63043e-07
1.66239e-07
1.69483e-07
1.72773e-07
1.76112e-07
1.79497e-07
1.82931e-07
1.86413e-07
1.89943e-07
1.93522e-07
1.9715e-07
2.00827e-07
2.04553e-07
2.08328e-07
2.12153e-07
2.16027e-07
2.19952e-07
2.23926e-07
2.2795e-07
2.32025e-07
2.36149e-07
2.40324e-07
2.44549e-07
2.48824e-07
2.5315e-07
2.57526e-07
2.61952e-07
2.66429e-07
2.70955e-07
2.75532e-07
2.80159e-07
2.84836e-07
2.89563e-07
2.94339e-07
2.99165e-07
3.0404e-07
3.08964e-07
3.13937e-07
3.18959e-07
3.24029e-07
3.29148e-07
3.34314e-07
3.39527e-07
3.44788e-07
3.50096e-07
3.55449e-07
3.60849e-07
3.66295e-07
3.71785e-07
3.77321e-07
3.829e-07
3.88523e-07
3.94189e-07
3.99897e-07
4.05648e-07
4.11439e-07
4.17272e-07
4.23144e-07
4.29056e-07
4.35006e-07
4.40994e-07
4.4702e-07
4.53082e-07
4.59179e-07
4.65312e-07
4.71478e-07
4.77677e-07
4.83909e-07
4.90172e-07
4.96465e-07
5.02788e-07
5.09139e-07
5.15518e-07
5.21923e-07
5.28354e-07
5.34809e-07
5.41287e-07
5.47787e-07
5.54309e-07
5.6085e-07
5.6741e-07
5.73988e-07
5.80582e-07
5.87191e-07
5.93814e-07
6.00449e-07
6.07096e-07
6.13753e-07
6.20419e-07
6.27092e-07
6.33771e-07
6.40454e-07
6.47141e-07
6.5383e-07
6.60519e-07
6.67208e-07
6.73894e-07
6.80576e-07
6.87253e-07
6.93923e-07
7.00584e-07
7.07236e-07
7.13877e-07
7.20505e-07
7.27119e-07
7.33716e-07
7.40297e-07
7.46858e-07
7.53399e-07
7.59918e-07
7.66413e-07
7.72883e-07
7.79327e-07
7.85742e-07
7.92127e-07
7.9848e-07
8.04801e-07
8.11087e-07
8.17337e-07
8.2355e-07
8.29723e-07
8.35855e-07
8.41944e-07
8.4799e-07
8.5399e-07
8.59943e-07
8.65847e-07
8.71701e-07
8.77504e-07
8.83252e-07
8.88946e-07
8.94583e-07
9.00161e-07
9.0568e-07
9.11137e-07
9.16531e-07
9.2186e-07
9.27121e-07
9.32315e-07
9.37437e-07
9.42487e-07
9.47462e-07
9.52361e-07
9.5718e-07
9.61917e-07
9.66569e-07
9.71134e-07
9.75608e-07
9.79988e-07
9.84269e-07
9.88449e-07
9.92521e-07
9.96482e-07
1.00032e-06
1.00404e-06
1.00763e-06
1.01108e-06
1.01438e-06
1.01752e-06
1.02049e-06
1.02328e-06
1.02587e-06
1.02825e-06
1.03041e-06
1.03232e-06
1.03396e-06
1.03532e-06
1.03636e-06
1.03708e-06
1.03744e-06
1.28142e-12
4.10793e-12
7.22792e-12
1.06369e-11
1.43344e-11
1.83291e-11
2.26319e-11
2.72554e-11
3.2214e-11
3.75239e-11
4.32023e-11
4.92671e-11
5.57373e-11
6.26324e-11
6.99722e-11
7.77772e-11
8.60682e-11
9.48663e-11
1.04193e-10
1.1407e-10
1.24519e-10
1.35564e-10
1.47226e-10
1.5953e-10
1.72498e-10
1.86156e-10
2.00528e-10
2.15639e-10
2.31514e-10
2.4818e-10
2.65664e-10
2.83993e-10
3.03194e-10
3.23297e-10
3.4433e-10
3.66322e-10
3.89306e-10
4.1331e-10
4.38367e-10
4.6451e-10
4.91771e-10
5.20184e-10
5.49784e-10
5.80606e-10
6.12686e-10
6.46061e-10
6.80769e-10
7.16848e-10
7.54338e-10
7.93278e-10
8.33712e-10
8.75679e-10
9.19225e-10
9.64392e-10
1.01123e-09
1.05977e-09
1.11008e-09
1.1622e-09
1.21617e-09
1.27206e-09
1.3299e-09
1.38976e-09
1.45169e-09
1.51574e-09
1.58197e-09
1.65045e-09
1.72121e-09
1.79434e-09
1.86989e-09
1.94793e-09
2.02851e-09
2.11172e-09
2.19761e-09
2.28626e-09
2.37773e-09
2.4721e-09
2.56946e-09
2.66986e-09
2.7734e-09
2.88014e-09
2.99019e-09
3.1036e-09
3.22049e-09
3.34092e-09
3.465e-09
3.59282e-09
3.72446e-09
3.86002e-09
3.99961e-09
4.14332e-09
4.29126e-09
4.44353e-09
4.60025e-09
4.76151e-09
4.92743e-09
5.09813e-09
5.27372e-09
5.45433e-09
5.64007e-09
5.83107e-09
6.02747e-09
6.22938e-09
6.43694e-09
6.6503e-09
6.86958e-09
7.09493e-09
7.32649e-09
7.56442e-09
7.80885e-09
8.05996e-09
8.31788e-09
8.58279e-09
8.85485e-09
9.13421e-09
9.42106e-09
9.71556e-09
1.00179e-08
1.03282e-08
1.06468e-08
1.09737e-08
1.13092e-08
1.16534e-08
1.20066e-08
1.2369e-08
1.27408e-08
1.31221e-08
1.35132e-08
1.39143e-08
1.43256e-08
1.47473e-08
1.51798e-08
1.56231e-08
1.60776e-08
1.65435e-08
1.70209e-08
1.75103e-08
1.80117e-08
1.85255e-08
1.9052e-08
1.95913e-08
2.01438e-08
2.07098e-08
2.12894e-08
2.18831e-08
2.2491e-08
2.31134e-08
2.37507e-08
2.44032e-08
2.5071e-08
2.57547e-08
2.64544e-08
2.71705e-08
2.79032e-08
2.8653e-08
2.94201e-08
3.02048e-08
3.10076e-08
3.18287e-08
3.26684e-08
3.35272e-08
3.44054e-08
3.53032e-08
3.62212e-08
3.71596e-08
3.81188e-08
3.90991e-08
4.0101e-08
4.11249e-08
4.2171e-08
4.32399e-08
4.43318e-08
4.54471e-08
4.65864e-08
4.77498e-08
4.8938e-08
5.01512e-08
5.13898e-08
5.26544e-08
5.39452e-08
5.52627e-08
5.66074e-08
5.79796e-08
5.93797e-08
6.08083e-08
6.22656e-08
6.37522e-08
6.52685e-08
6.68149e-08
6.83919e-08
6.99998e-08
7.16391e-08
7.33103e-08
7.50139e-08
7.67501e-08
7.85195e-08
8.03226e-08
8.21597e-08
8.40314e-08
8.5938e-08
8.78799e-08
8.98578e-08
9.18719e-08
9.39227e-08
9.60107e-08
9.81363e-08
1.003e-07
1.02502e-07
1.04743e-07
1.07023e-07
1.09344e-07
1.11704e-07
1.14105e-07
1.16547e-07
1.1903e-07
1.21555e-07
1.24123e-07
1.26733e-07
1.29387e-07
1.32084e-07
1.34824e-07
1.37609e-07
1.40439e-07
1.43313e-07
1.46233e-07
1.49199e-07
1.52211e-07
1.55269e-07
1.58374e-07
1.61527e-07
1.64726e-07
1.67974e-07
1.71269e-07
1.74613e-07
1.78005e-07
1.81447e-07
1.84937e-07
1.88477e-07
1.92067e-07
1.95707e-07
1.99397e-07
2.03137e-07
2.06928e-07
2.10769e-07
2.14662e-07
2.18605e-07
2.226e-07
2.26646e-07
2.30744e-07
2.34893e-07
2.39094e-07
2.43347e-07
2.47652e-07
2.52009e-07
2.56417e-07
2.60878e-07
2.6539e-07
2.69954e-07
2.7457e-07
2.79239e-07
2.83958e-07
2.8873e-07
2.93553e-07
2.98427e-07
3.03353e-07
3.0833e-07
3.13357e-07
3.18436e-07
3.23565e-07
3.28744e-07
3.33973e-07
3.39252e-07
3.4458e-07
3.49957e-07
3.55383e-07
3.60857e-07
3.66379e-07
3.71949e-07
3.77566e-07
3.83229e-07
3.88938e-07
3.94693e-07
4.00493e-07
4.06338e-07
4.12226e-07
4.18158e-07
4.24133e-07
4.30149e-07
4.36207e-07
4.42306e-07
4.48444e-07
4.54622e-07
4.60838e-07
4.67092e-07
4.73383e-07
4.79709e-07
4.86071e-07
4.92467e-07
4.98896e-07
5.05358e-07
5.11851e-07
5.18375e-07
5.24928e-07
5.3151e-07
5.38119e-07
5.44754e-07
5.51415e-07
5.58099e-07
5.64807e-07
5.71537e-07
5.78287e-07
5.85056e-07
5.91844e-07
5.98649e-07
6.05469e-07
6.12304e-07
6.19152e-07
6.26012e-07
6.32882e-07
6.39762e-07
6.46649e-07
6.53542e-07
6.60441e-07
6.67343e-07
6.74247e-07
6.81151e-07
6.88055e-07
6.94956e-07
7.01854e-07
7.08746e-07
7.15632e-07
7.22509e-07
7.29375e-07
7.36231e-07
7.43073e-07
7.49901e-07
7.56713e-07
7.63506e-07
7.70281e-07
7.77034e-07
7.83765e-07
7.90471e-07
7.97152e-07
8.03805e-07
8.10429e-07
8.17022e-07
8.23583e-07
8.3011e-07
8.36602e-07
8.43056e-07
8.49472e-07
8.55847e-07
8.6218e-07
8.6847e-07
8.74714e-07
8.80911e-07
8.8706e-07
8.93159e-07
8.99205e-07
9.05199e-07
9.11137e-07
9.17019e-07
9.22843e-07
9.28606e-07
9.34308e-07
9.39946e-07
9.45519e-07
9.51025e-07
9.56462e-07
9.61829e-07
9.67122e-07
9.72341e-07
9.77484e-07
9.82546e-07
9.87527e-07
9.92424e-07
9.97234e-07
1.00195e-06
1.00658e-06
1.01111e-06
1.01554e-06
1.01986e-06
1.02407e-06
1.02817e-06
1.03215e-06
1.036e-06
1.03971e-06
1.04328e-06
1.0467e-06
1.04996e-06
1.05304e-06
1.05593e-06
1.05863e-06
1.06111e-06
1.06335e-06
1.06534e-06
1.06706e-06
1.06847e-06
1.06957e-06
1.07033e-06
1.07072e-06
1.25744e-12
4.03408e-12
7.09622e-12
1.04528e-11
1.41086e-11
1.80709e-11
2.2349e-11
2.69548e-11
3.1902e-11
3.72063e-11
4.28846e-11
4.89551e-11
5.54368e-11
6.23492e-11
6.97125e-11
7.75474e-11
8.5875e-11
9.47168e-11
1.04095e-10
1.14031e-10
1.24547e-10
1.35668e-10
1.47416e-10
1.59815e-10
1.72889e-10
1.86664e-10
2.01165e-10
2.16416e-10
2.32445e-10
2.49279e-10
2.66945e-10
2.85471e-10
3.04885e-10
3.25218e-10
3.46498e-10
3.68756e-10
3.92024e-10
4.16333e-10
4.41716e-10
4.68207e-10
4.95838e-10
5.24645e-10
5.54664e-10
5.85931e-10
6.18482e-10
6.52356e-10
6.87592e-10
7.24229e-10
7.62307e-10
8.01869e-10
8.42957e-10
8.85614e-10
9.29884e-10
9.75813e-10
1.02345e-09
1.07283e-09
1.12402e-09
1.17706e-09
1.232e-09
1.2889e-09
1.3478e-09
1.40876e-09
1.47184e-09
1.5371e-09
1.60459e-09
1.67437e-09
1.7465e-09
1.82105e-09
1.89808e-09
1.97766e-09
2.05984e-09
2.14471e-09
2.23234e-09
2.32278e-09
2.41612e-09
2.51244e-09
2.6118e-09
2.71429e-09
2.81999e-09
2.92898e-09
3.04135e-09
3.15717e-09
3.27655e-09
3.39957e-09
3.52632e-09
3.65689e-09
3.79139e-09
3.92991e-09
4.07256e-09
4.21943e-09
4.37063e-09
4.52627e-09
4.68646e-09
4.85132e-09
5.02095e-09
5.19547e-09
5.37502e-09
5.5597e-09
5.74964e-09
5.94498e-09
6.14584e-09
6.35236e-09
6.56467e-09
6.78291e-09
7.00723e-09
7.23777e-09
7.47468e-09
7.71811e-09
7.96822e-09
8.22515e-09
8.48908e-09
8.76016e-09
9.03857e-09
9.32448e-09
9.61805e-09
9.91947e-09
1.02289e-08
1.05466e-08
1.08726e-08
1.12073e-08
1.15507e-08
1.19031e-08
1.22647e-08
1.26357e-08
1.30163e-08
1.34067e-08
1.38071e-08
1.42178e-08
1.4639e-08
1.50708e-08
1.55137e-08
1.59676e-08
1.6433e-08
1.69101e-08
1.73991e-08
1.79002e-08
1.84138e-08
1.894e-08
1.94792e-08
2.00316e-08
2.05975e-08
2.11772e-08
2.17709e-08
2.2379e-08
2.30017e-08
2.36393e-08
2.42921e-08
2.49605e-08
2.56447e-08
2.6345e-08
2.70618e-08
2.77954e-08
2.85461e-08
2.93143e-08
3.01002e-08
3.09042e-08
3.17267e-08
3.2568e-08
3.34284e-08
3.43084e-08
3.52082e-08
3.61282e-08
3.70688e-08
3.80304e-08
3.90133e-08
4.00179e-08
4.10446e-08
4.20938e-08
4.31659e-08
4.42612e-08
4.53802e-08
4.65233e-08
4.76909e-08
4.88833e-08
5.0101e-08
5.13444e-08
5.2614e-08
5.391e-08
5.52331e-08
5.65835e-08
5.79618e-08
5.93683e-08
6.08035e-08
6.22678e-08
6.37617e-08
6.52856e-08
6.68399e-08
6.84251e-08
7.00417e-08
7.16901e-08
7.33707e-08
7.50839e-08
7.68304e-08
7.86104e-08
8.04245e-08
8.2273e-08
8.41566e-08
8.60755e-08
8.80303e-08
9.00214e-08
9.20494e-08
9.41145e-08
9.62173e-08
9.83583e-08
1.00538e-07
1.02756e-07
1.05015e-07
1.07313e-07
1.09651e-07
1.1203e-07
1.14451e-07
1.16913e-07
1.19417e-07
1.21964e-07
1.24554e-07
1.27187e-07
1.29864e-07
1.32586e-07
1.35351e-07
1.38162e-07
1.41019e-07
1.43921e-07
1.4687e-07
1.49865e-07
1.52907e-07
1.55996e-07
1.59133e-07
1.62318e-07
1.65552e-07
1.68834e-07
1.72165e-07
1.75546e-07
1.78976e-07
1.82457e-07
1.85987e-07
1.89568e-07
1.932e-07
1.96883e-07
2.00617e-07
2.04403e-07
2.08241e-07
2.1213e-07
2.16072e-07
2.20066e-07
2.24112e-07
2.28212e-07
2.32363e-07
2.36568e-07
2.40826e-07
2.45137e-07
2.49502e-07
2.53919e-07
2.5839e-07
2.62915e-07
2.67492e-07
2.72123e-07
2.76808e-07
2.81546e-07
2.86337e-07
2.91181e-07
2.96079e-07
3.01029e-07
3.06032e-07
3.11088e-07
3.16197e-07
3.21358e-07
3.26571e-07
3.31836e-07
3.37153e-07
3.42521e-07
3.4794e-07
3.5341e-07
3.58931e-07
3.64502e-07
3.70122e-07
3.75792e-07
3.8151e-07
3.87277e-07
3.93092e-07
3.98955e-07
4.04864e-07
4.1082e-07
4.16821e-07
4.22868e-07
4.2896e-07
4.35095e-07
4.41274e-07
4.47495e-07
4.53759e-07
4.60063e-07
4.66408e-07
4.72793e-07
4.79216e-07
4.85677e-07
4.92176e-07
4.9871e-07
5.0528e-07
5.11885e-07
5.18523e-07
5.25193e-07
5.31895e-07
5.38627e-07
5.45389e-07
5.52179e-07
5.58996e-07
5.65839e-07
5.72707e-07
5.79599e-07
5.86514e-07
5.9345e-07
6.00406e-07
6.07381e-07
6.14374e-07
6.21383e-07
6.28407e-07
6.35445e-07
6.42495e-07
6.49556e-07
6.56626e-07
6.63705e-07
6.7079e-07
6.77881e-07
6.84976e-07
6.92073e-07
6.9917e-07
7.06267e-07
7.13362e-07
7.20453e-07
7.27539e-07
7.34618e-07
7.41689e-07
7.4875e-07
7.55798e-07
7.62834e-07
7.69855e-07
7.7686e-07
7.83846e-07
7.90813e-07
7.97758e-07
8.04681e-07
8.11578e-07
8.18449e-07
8.25293e-07
8.32106e-07
8.38889e-07
8.45638e-07
8.52353e-07
8.59031e-07
8.65672e-07
8.72272e-07
8.78832e-07
8.85348e-07
8.9182e-07
8.98246e-07
9.04623e-07
9.10951e-07
9.17228e-07
9.23452e-07
9.29621e-07
9.35733e-07
9.41788e-07
9.47783e-07
9.53716e-07
9.59587e-07
9.65392e-07
9.7113e-07
9.768e-07
9.824e-07
9.87927e-07
9.93379e-07
9.98755e-07
1.00405e-06
1.00927e-06
1.0144e-06
1.01945e-06
1.0244e-06
1.02927e-06
1.03404e-06
1.03871e-06
1.04328e-06
1.04774e-06
1.05208e-06
1.05631e-06
1.06042e-06
1.06439e-06
1.06823e-06
1.07192e-06
1.07546e-06
1.07883e-06
1.08202e-06
1.08503e-06
1.08783e-06
1.0904e-06
1.09274e-06
1.09482e-06
1.09661e-06
1.09811e-06
1.09927e-06
1.10007e-06
1.10048e-06
1.23358e-12
3.95672e-12
6.9552e-12
1.02445e-11
1.38359e-11
1.77386e-11
2.19633e-11
2.65218e-11
3.14277e-11
3.66965e-11
4.2345e-11
4.83911e-11
5.48536e-11
6.17522e-11
6.9107e-11
7.69388e-11
8.52687e-11
9.41184e-11
1.0351e-10
1.13466e-10
1.24009e-10
1.35163e-10
1.46951e-10
1.59398e-10
1.72528e-10
1.86367e-10
2.0094e-10
2.16274e-10
2.32396e-10
2.49333e-10
2.67113e-10
2.85764e-10
3.05317e-10
3.25801e-10
3.47246e-10
3.69684e-10
3.93147e-10
4.17666e-10
4.43277e-10
4.70012e-10
4.97906e-10
5.26995e-10
5.57315e-10
5.88903e-10
6.21798e-10
6.56038e-10
6.91663e-10
7.28713e-10
7.6723e-10
8.07257e-10
8.48836e-10
8.92012e-10
9.3683e-10
9.83337e-10
1.03158e-09
1.08161e-09
1.13347e-09
1.18722e-09
1.24291e-09
1.30058e-09
1.3603e-09
1.42212e-09
1.4861e-09
1.5523e-09
1.62077e-09
1.69157e-09
1.76478e-09
1.84045e-09
1.91864e-09
1.99943e-09
2.08289e-09
2.16908e-09
2.25807e-09
2.34994e-09
2.44477e-09
2.54263e-09
2.6436e-09
2.74775e-09
2.85518e-09
2.96597e-09
3.08019e-09
3.19795e-09
3.31933e-09
3.44442e-09
3.57331e-09
3.70611e-09
3.84291e-09
3.98381e-09
4.12892e-09
4.27834e-09
4.43218e-09
4.59055e-09
4.75355e-09
4.92132e-09
5.09396e-09
5.27159e-09
5.45433e-09
5.64232e-09
5.83568e-09
6.03454e-09
6.23904e-09
6.4493e-09
6.66548e-09
6.8877e-09
7.11613e-09
7.3509e-09
7.59217e-09
7.84009e-09
8.09482e-09
8.35652e-09
8.62536e-09
8.9015e-09
9.18511e-09
9.47636e-09
9.77544e-09
1.00825e-08
1.03978e-08
1.07215e-08
1.10537e-08
1.13947e-08
1.17446e-08
1.21037e-08
1.24722e-08
1.28503e-08
1.32381e-08
1.3636e-08
1.40441e-08
1.44627e-08
1.4892e-08
1.53322e-08
1.57835e-08
1.62463e-08
1.67207e-08
1.7207e-08
1.77055e-08
1.82163e-08
1.87399e-08
1.92764e-08
1.98261e-08
2.03893e-08
2.09663e-08
2.15573e-08
2.21627e-08
2.27827e-08
2.34176e-08
2.40678e-08
2.47335e-08
2.5415e-08
2.61127e-08
2.68269e-08
2.75579e-08
2.83061e-08
2.90716e-08
2.9855e-08
3.06566e-08
3.14766e-08
3.23155e-08
3.31735e-08
3.40511e-08
3.49487e-08
3.58665e-08
3.68049e-08
3.77644e-08
3.87452e-08
3.97479e-08
4.07727e-08
4.18201e-08
4.28904e-08
4.39841e-08
4.51016e-08
4.62432e-08
4.74094e-08
4.86006e-08
4.98171e-08
5.10596e-08
5.23282e-08
5.36236e-08
5.4946e-08
5.6296e-08
5.76739e-08
5.90803e-08
6.05155e-08
6.19801e-08
6.34744e-08
6.49988e-08
6.6554e-08
6.81402e-08
6.9758e-08
7.14078e-08
7.309e-08
7.48052e-08
7.65538e-08
7.83363e-08
8.01531e-08
8.20046e-08
8.38914e-08
8.5814e-08
8.77727e-08
8.97681e-08
9.18006e-08
9.38707e-08
9.59788e-08
9.81254e-08
1.00311e-07
1.02536e-07
1.04801e-07
1.07106e-07
1.09452e-07
1.1184e-07
1.14269e-07
1.1674e-07
1.19254e-07
1.21811e-07
1.24412e-07
1.27056e-07
1.29745e-07
1.32478e-07
1.35257e-07
1.38082e-07
1.40952e-07
1.43869e-07
1.46833e-07
1.49844e-07
1.52903e-07
1.5601e-07
1.59165e-07
1.62369e-07
1.65622e-07
1.68925e-07
1.72277e-07
1.7568e-07
1.79133e-07
1.82637e-07
1.86192e-07
1.89798e-07
1.93456e-07
1.97166e-07
2.00929e-07
2.04744e-07
2.08611e-07
2.12532e-07
2.16505e-07
2.20532e-07
2.24613e-07
2.28747e-07
2.32936e-07
2.37178e-07
2.41475e-07
2.45825e-07
2.50231e-07
2.5469e-07
2.59205e-07
2.63774e-07
2.68397e-07
2.73075e-07
2.77808e-07
2.82596e-07
2.87438e-07
2.92335e-07
2.97286e-07
3.02292e-07
3.07351e-07
3.12466e-07
3.17634e-07
3.22856e-07
3.28131e-07
3.33461e-07
3.38843e-07
3.44278e-07
3.49766e-07
3.55307e-07
3.60899e-07
3.66543e-07
3.72239e-07
3.77985e-07
3.83783e-07
3.8963e-07
3.95527e-07
4.01473e-07
4.07468e-07
4.13511e-07
4.19601e-07
4.25739e-07
4.31923e-07
4.38153e-07
4.44428e-07
4.50748e-07
4.57111e-07
4.63517e-07
4.69966e-07
4.76456e-07
4.82987e-07
4.89558e-07
4.96167e-07
5.02815e-07
5.095e-07
5.16222e-07
5.22979e-07
5.2977e-07
5.36595e-07
5.43452e-07
5.50341e-07
5.5726e-07
5.64208e-07
5.71184e-07
5.78187e-07
5.85216e-07
5.92269e-07
5.99346e-07
6.06445e-07
6.13564e-07
6.20703e-07
6.27861e-07
6.35035e-07
6.42226e-07
6.4943e-07
6.56647e-07
6.63876e-07
6.71115e-07
6.78362e-07
6.85616e-07
6.92876e-07
7.00141e-07
7.07408e-07
7.14676e-07
7.21943e-07
7.29209e-07
7.36471e-07
7.43728e-07
7.50978e-07
7.5822e-07
7.65452e-07
7.72673e-07
7.7988e-07
7.87072e-07
7.94248e-07
8.01405e-07
8.08543e-07
8.15658e-07
8.22751e-07
8.29819e-07
8.3686e-07
8.43872e-07
8.50855e-07
8.57806e-07
8.64723e-07
8.71605e-07
8.7845e-07
8.85257e-07
8.92023e-07
8.98748e-07
9.05428e-07
9.12064e-07
9.18652e-07
9.25191e-07
9.3168e-07
9.38116e-07
9.44499e-07
9.50826e-07
9.57095e-07
9.63305e-07
9.69455e-07
9.75542e-07
9.81564e-07
9.8752e-07
9.93408e-07
9.99227e-07
1.00497e-06
1.01065e-06
1.01624e-06
1.02176e-06
1.0272e-06
1.03256e-06
1.03783e-06
1.04301e-06
1.0481e-06
1.0531e-06
1.058e-06
1.0628e-06
1.0675e-06
1.07208e-06
1.07655e-06
1.08091e-06
1.08513e-06
1.08923e-06
1.09318e-06
1.09699e-06
1.10064e-06
1.10412e-06
1.10742e-06
1.11053e-06
1.11343e-06
1.1161e-06
1.11853e-06
1.1207e-06
1.12258e-06
1.12415e-06
1.12537e-06
1.12622e-06
1.12667e-06
1.21106e-12
3.8833e-12
6.82161e-12
1.00431e-11
1.35629e-11
1.73944e-11
2.15501e-11
2.60435e-11
3.08891e-11
3.61027e-11
4.1701e-11
4.77021e-11
5.41246e-11
6.0988e-11
6.83123e-11
7.61184e-11
8.44271e-11
9.32603e-11
1.0264e-10
1.12589e-10
1.2313e-10
1.34286e-10
1.46083e-10
1.58543e-10
1.71693e-10
1.85558e-10
2.00164e-10
2.15538e-10
2.31707e-10
2.48699e-10
2.66543e-10
2.85268e-10
3.04903e-10
3.25479e-10
3.47027e-10
3.69579e-10
3.93167e-10
4.17825e-10
4.43586e-10
4.70485e-10
4.98558e-10
5.27841e-10
5.5837e-10
5.90184e-10
6.23321e-10
6.57821e-10
6.93724e-10
7.31071e-10
7.69905e-10
8.1027e-10
8.52208e-10
8.95766e-10
9.40989e-10
9.87925e-10
1.03662e-09
1.08713e-09
1.1395e-09
1.19378e-09
1.25003e-09
1.30829e-09
1.36864e-09
1.43111e-09
1.49577e-09
1.56269e-09
1.63191e-09
1.7035e-09
1.77753e-09
1.85406e-09
1.93316e-09
2.01489e-09
2.09933e-09
2.18655e-09
2.27661e-09
2.36959e-09
2.46558e-09
2.56464e-09
2.66686e-09
2.77233e-09
2.88111e-09
2.99331e-09
3.109e-09
3.22827e-09
3.35123e-09
3.47795e-09
3.60854e-09
3.7431e-09
3.88172e-09
4.02451e-09
4.17157e-09
4.32301e-09
4.47894e-09
4.63947e-09
4.80472e-09
4.9748e-09
5.14983e-09
5.32993e-09
5.51523e-09
5.70586e-09
5.90195e-09
6.10362e-09
6.31102e-09
6.52428e-09
6.74355e-09
6.96896e-09
7.20068e-09
7.43884e-09
7.68361e-09
7.93513e-09
8.19358e-09
8.45911e-09
8.73188e-09
9.01208e-09
9.29987e-09
9.59543e-09
9.89895e-09
1.02106e-08
1.05306e-08
1.0859e-08
1.11962e-08
1.15423e-08
1.18975e-08
1.22621e-08
1.26361e-08
1.30199e-08
1.34136e-08
1.38176e-08
1.42319e-08
1.46568e-08
1.50927e-08
1.55396e-08
1.59979e-08
1.64677e-08
1.69494e-08
1.74432e-08
1.79494e-08
1.84682e-08
1.89998e-08
1.95447e-08
2.01029e-08
2.06749e-08
2.12608e-08
2.18611e-08
2.24759e-08
2.31056e-08
2.37505e-08
2.44109e-08
2.5087e-08
2.57793e-08
2.6488e-08
2.72135e-08
2.79561e-08
2.87161e-08
2.94938e-08
3.02896e-08
3.11039e-08
3.1937e-08
3.27892e-08
3.3661e-08
3.45526e-08
3.54645e-08
3.6397e-08
3.73505e-08
3.83254e-08
3.9322e-08
4.03408e-08
4.13822e-08
4.24465e-08
4.35341e-08
4.46455e-08
4.57811e-08
4.69412e-08
4.81264e-08
4.9337e-08
5.05734e-08
5.1836e-08
5.31254e-08
5.44419e-08
5.5786e-08
5.71581e-08
5.85587e-08
5.99882e-08
6.1447e-08
6.29357e-08
6.44546e-08
6.60043e-08
6.75851e-08
6.91976e-08
7.08422e-08
7.25193e-08
7.42296e-08
7.59733e-08
7.7751e-08
7.95632e-08
8.14103e-08
8.32928e-08
8.52112e-08
8.7166e-08
8.91576e-08
9.11865e-08
9.32531e-08
9.53581e-08
9.75017e-08
9.96846e-08
1.01907e-07
1.0417e-07
1.06473e-07
1.08818e-07
1.11204e-07
1.13632e-07
1.16102e-07
1.18615e-07
1.21172e-07
1.23773e-07
1.26418e-07
1.29108e-07
1.31843e-07
1.34623e-07
1.3745e-07
1.40323e-07
1.43243e-07
1.4621e-07
1.49225e-07
1.52289e-07
1.554e-07
1.58561e-07
1.61771e-07
1.65031e-07
1.68341e-07
1.71701e-07
1.75112e-07
1.78574e-07
1.82088e-07
1.85653e-07
1.8927e-07
1.9294e-07
1.96663e-07
2.00438e-07
2.04267e-07
2.08149e-07
2.12085e-07
2.16075e-07
2.2012e-07
2.24218e-07
2.28372e-07
2.3258e-07
2.36843e-07
2.41161e-07
2.45534e-07
2.49963e-07
2.54447e-07
2.58987e-07
2.63583e-07
2.68234e-07
2.72941e-07
2.77704e-07
2.82522e-07
2.87396e-07
2.92326e-07
2.97312e-07
3.02353e-07
3.0745e-07
3.12603e-07
3.1781e-07
3.23073e-07
3.28391e-07
3.33763e-07
3.3919e-07
3.44671e-07
3.50207e-07
3.55796e-07
3.61439e-07
3.67135e-07
3.72884e-07
3.78685e-07
3.84539e-07
3.90444e-07
3.964e-07
4.02407e-07
4.08465e-07
4.14572e-07
4.20728e-07
4.26933e-07
4.33186e-07
4.39487e-07
4.45835e-07
4.52228e-07
4.58667e-07
4.65151e-07
4.71679e-07
4.78251e-07
4.84865e-07
4.9152e-07
4.98216e-07
5.04953e-07
5.11728e-07
5.18542e-07
5.25393e-07
5.3228e-07
5.39202e-07
5.46159e-07
5.53149e-07
5.60171e-07
5.67225e-07
5.74308e-07
5.8142e-07
5.8856e-07
5.95726e-07
6.02918e-07
6.10134e-07
6.17372e-07
6.24632e-07
6.31912e-07
6.39211e-07
6.46528e-07
6.53861e-07
6.61208e-07
6.68569e-07
6.75942e-07
6.83326e-07
6.90718e-07
6.98118e-07
7.05524e-07
7.12935e-07
7.20349e-07
7.27764e-07
7.35179e-07
7.42592e-07
7.50002e-07
7.57407e-07
7.64805e-07
7.72195e-07
7.79575e-07
7.86944e-07
7.943e-07
8.0164e-07
8.08964e-07
8.1627e-07
8.23556e-07
8.3082e-07
8.38061e-07
8.45276e-07
8.52465e-07
8.59625e-07
8.66754e-07
8.73851e-07
8.80915e-07
8.87943e-07
8.94934e-07
9.01886e-07
9.08797e-07
9.15665e-07
9.22489e-07
9.29267e-07
9.35998e-07
9.42678e-07
9.49308e-07
9.55885e-07
9.62406e-07
9.68872e-07
9.75279e-07
9.81626e-07
9.87912e-07
9.94133e-07
1.00029e-06
1.00638e-06
1.0124e-06
1.01835e-06
1.02422e-06
1.03003e-06
1.03575e-06
1.0414e-06
1.04696e-06
1.05244e-06
1.05783e-06
1.06314e-06
1.06835e-06
1.07347e-06
1.07848e-06
1.0834e-06
1.08821e-06
1.09291e-06
1.09749e-06
1.10196e-06
1.10629e-06
1.1105e-06
1.11456e-06
1.11847e-06
1.12222e-06
1.1258e-06
1.1292e-06
1.13241e-06
1.13541e-06
1.13817e-06
1.1407e-06
1.14295e-06
1.14491e-06
1.14655e-06
1.14784e-06
1.14874e-06
1.14921e-06
1.19112e-12
3.81809e-12
6.70296e-12
9.86251e-12
1.33141e-11
1.70739e-11
2.11573e-11
2.55797e-11
3.03573e-11
3.55066e-11
4.10449e-11
4.69904e-11
5.33618e-11
6.01784e-11
6.74602e-11
7.52277e-11
8.35018e-11
9.23041e-11
1.01657e-10
1.11582e-10
1.22103e-10
1.33244e-10
1.45028e-10
1.57481e-10
1.70628e-10
1.84494e-10
1.99106e-10
2.14491e-10
2.30677e-10
2.47691e-10
2.65564e-10
2.84324e-10
3.04002e-10
3.24628e-10
3.46234e-10
3.68852e-10
3.92515e-10
4.17258e-10
4.43113e-10
4.70117e-10
4.98306e-10
5.27715e-10
5.58383e-10
5.90348e-10
6.2365e-10
6.58328e-10
6.94423e-10
7.31977e-10
7.71034e-10
8.11637e-10
8.5383e-10
8.97661e-10
9.43174e-10
9.90419e-10
1.03944e-09
1.0903e-09
1.14304e-09
1.19771e-09
1.25437e-09
1.31307e-09
1.37388e-09
1.43684e-09
1.50201e-09
1.56946e-09
1.63924e-09
1.71143e-09
1.78608e-09
1.86326e-09
1.94304e-09
2.02548e-09
2.11067e-09
2.19866e-09
2.28953e-09
2.38336e-09
2.48023e-09
2.58022e-09
2.6834e-09
2.78986e-09
2.89969e-09
3.01296e-09
3.12978e-09
3.25022e-09
3.37439e-09
3.50237e-09
3.63427e-09
3.77019e-09
3.91022e-09
4.05447e-09
4.20304e-09
4.35605e-09
4.5136e-09
4.67582e-09
4.8428e-09
5.01468e-09
5.19157e-09
5.3736e-09
5.56089e-09
5.75358e-09
5.95179e-09
6.15566e-09
6.36532e-09
6.58093e-09
6.80261e-09
7.03053e-09
7.26482e-09
7.50564e-09
7.75314e-09
8.00749e-09
8.26885e-09
8.53738e-09
8.81325e-09
9.09664e-09
9.38771e-09
9.68666e-09
9.99366e-09
1.03089e-08
1.06326e-08
1.09648e-08
1.1306e-08
1.16561e-08
1.20154e-08
1.23842e-08
1.27627e-08
1.3151e-08
1.35493e-08
1.3958e-08
1.43773e-08
1.48073e-08
1.52483e-08
1.57005e-08
1.61643e-08
1.66397e-08
1.71272e-08
1.7627e-08
1.81392e-08
1.86643e-08
1.92023e-08
1.97538e-08
2.03188e-08
2.08977e-08
2.14908e-08
2.20984e-08
2.27207e-08
2.33581e-08
2.40109e-08
2.46794e-08
2.53639e-08
2.60647e-08
2.67822e-08
2.75166e-08
2.82684e-08
2.90378e-08
2.98252e-08
3.06309e-08
3.14554e-08
3.22989e-08
3.31617e-08
3.40444e-08
3.49472e-08
3.58706e-08
3.68148e-08
3.77803e-08
3.87675e-08
3.97768e-08
4.08085e-08
4.1863e-08
4.29409e-08
4.40423e-08
4.51679e-08
4.6318e-08
4.74929e-08
4.86933e-08
4.99193e-08
5.11716e-08
5.24505e-08
5.37565e-08
5.509e-08
5.64514e-08
5.78413e-08
5.926e-08
6.0708e-08
6.21858e-08
6.36939e-08
6.52326e-08
6.68024e-08
6.84039e-08
7.00375e-08
7.17036e-08
7.34028e-08
7.51355e-08
7.69022e-08
7.87034e-08
8.05395e-08
8.2411e-08
8.43185e-08
8.62623e-08
8.8243e-08
9.02611e-08
9.2317e-08
9.44113e-08
9.65443e-08
9.87167e-08
1.00929e-07
1.03181e-07
1.05474e-07
1.07809e-07
1.10185e-07
1.12603e-07
1.15064e-07
1.17568e-07
1.20115e-07
1.22707e-07
1.25343e-07
1.28024e-07
1.3075e-07
1.33522e-07
1.36341e-07
1.39206e-07
1.42119e-07
1.45079e-07
1.48087e-07
1.51144e-07
1.5425e-07
1.57404e-07
1.60609e-07
1.63864e-07
1.67169e-07
1.70525e-07
1.73932e-07
1.7739e-07
1.80901e-07
1.84464e-07
1.88079e-07
1.91747e-07
1.95469e-07
1.99244e-07
2.03073e-07
2.06956e-07
2.10893e-07
2.14885e-07
2.18931e-07
2.23033e-07
2.2719e-07
2.31403e-07
2.35671e-07
2.39995e-07
2.44375e-07
2.48812e-07
2.53304e-07
2.57853e-07
2.62459e-07
2.67121e-07
2.71839e-07
2.76614e-07
2.81446e-07
2.86335e-07
2.91281e-07
2.96283e-07
3.01341e-07
3.06457e-07
3.11628e-07
3.16856e-07
3.22141e-07
3.27481e-07
3.32877e-07
3.3833e-07
3.43837e-07
3.494e-07
3.55018e-07
3.60691e-07
3.66418e-07
3.72199e-07
3.78034e-07
3.83923e-07
3.89864e-07
3.95858e-07
4.01904e-07
4.08002e-07
4.14152e-07
4.20352e-07
4.26602e-07
4.32901e-07
4.3925e-07
4.45647e-07
4.52092e-07
4.58583e-07
4.65122e-07
4.71705e-07
4.78334e-07
4.85007e-07
4.91723e-07
4.98482e-07
5.05283e-07
5.12124e-07
5.19005e-07
5.25925e-07
5.32884e-07
5.39879e-07
5.4691e-07
5.53977e-07
5.61077e-07
5.68211e-07
5.75376e-07
5.82572e-07
5.89797e-07
5.97051e-07
6.04332e-07
6.11638e-07
6.1897e-07
6.26325e-07
6.33702e-07
6.41099e-07
6.48516e-07
6.55952e-07
6.63404e-07
6.70871e-07
6.78352e-07
6.85846e-07
6.9335e-07
7.00864e-07
7.08386e-07
7.15914e-07
7.23447e-07
7.30984e-07
7.38522e-07
7.46061e-07
7.53598e-07
7.61131e-07
7.6866e-07
7.76183e-07
7.83698e-07
7.91203e-07
7.98696e-07
8.06176e-07
8.13642e-07
8.21091e-07
8.28522e-07
8.35932e-07
8.43321e-07
8.50687e-07
8.58027e-07
8.6534e-07
8.72624e-07
8.79878e-07
8.87099e-07
8.94286e-07
9.01437e-07
9.08551e-07
9.15626e-07
9.22659e-07
9.29649e-07
9.36595e-07
9.43494e-07
9.50345e-07
9.57146e-07
9.63895e-07
9.70591e-07
9.77231e-07
9.83814e-07
9.90339e-07
9.96802e-07
1.0032e-06
1.00954e-06
1.01581e-06
1.02201e-06
1.02815e-06
1.03421e-06
1.04019e-06
1.04611e-06
1.05194e-06
1.05769e-06
1.06336e-06
1.06895e-06
1.07445e-06
1.07986e-06
1.08517e-06
1.09039e-06
1.09551e-06
1.10053e-06
1.10544e-06
1.11024e-06
1.11492e-06
1.11948e-06
1.12391e-06
1.1282e-06
1.13236e-06
1.13636e-06
1.1402e-06
1.14388e-06
1.14737e-06
1.15066e-06
1.15374e-06
1.1566e-06
1.1592e-06
1.16153e-06
1.16356e-06
1.16527e-06
1.16662e-06
1.16756e-06
1.16806e-06
1.17442e-12
3.76343e-12
6.60363e-12
9.71086e-12
1.31033e-11
1.6799e-11
2.08157e-11
2.51712e-11
2.98829e-11
3.49687e-11
4.04468e-11
4.63356e-11
5.26539e-11
5.94212e-11
6.66571e-11
7.43821e-11
8.2617e-11
9.1383e-11
1.00702e-10
1.10597e-10
1.21091e-10
1.32206e-10
1.43969e-10
1.56402e-10
1.69533e-10
1.83386e-10
1.97989e-10
2.13368e-10
2.29553e-10
2.4657e-10
2.6445e-10
2.83221e-10
3.02916e-10
3.23564e-10
3.45198e-10
3.67851e-10
3.91555e-10
4.16345e-10
4.42255e-10
4.69321e-10
4.9758e-10
5.27068e-10
5.57824e-10
5.89886e-10
6.23294e-10
6.58089e-10
6.94311e-10
7.32004e-10
7.71211e-10
8.11976e-10
8.54344e-10
8.98362e-10
9.44077e-10
9.91538e-10
1.04079e-09
1.09189e-09
1.14489e-09
1.19984e-09
1.2568e-09
1.31581e-09
1.37694e-09
1.44025e-09
1.50579e-09
1.57363e-09
1.64382e-09
1.71644e-09
1.79154e-09
1.86919e-09