/*--------------------------------*- C++ -*----------------------------------*\
  =========                 |
  \\      /  F ield         | OpenFOAM: The Open Source CFD Toolbox
   \\    /   O peration     | Website:  https://openfoam.org
    \\  /    A nd           | Version:  dev
     \\/     M anipulation  |
\*---------------------------------------------------------------------------*/
FoamFile
{
    format      ascii;
    class       volScalarField;
    location    "0.18";
    object      beta;
}
// * * * * * * * * * * * * * * * * * * * * * * * * * * * * * * * * * * * * * //

dimensions      [0 0 0 0 0 0 0];

internalField   uniform 0;

boundaryField
{
    frontAndBack
    {
        type            empty;
    }
    inlet
    {
        type            calculated;
        value           uniform 0;
    }
    outlet
    {
        type            calculated;
        value           uniform 0;
    }
    substrate
    {
        type            calculated;
        value           nonuniform List<scalar> 
400
(
0.00276623
0.00290617
0.00300899
0.00310306
0.00319254
0.00327779
0.00335981
0.00343949
0.00351745
0.00359417
0.00366996
0.00374512
0.00381982
0.00389424
0.00396849
0.00404266
0.00411682
0.00419102
0.00426527
0.00433961
0.00441404
0.00448855
0.00456315
0.00463783
0.00471256
0.00478733
0.00486213
0.00493692
0.00501168
0.0050864
0.00516104
0.00523557
0.00530998
0.00538424
0.00545831
0.00553218
0.00560582
0.00567919
0.00575228
0.00582505
0.00589749
0.00596957
0.00604125
0.00611253
0.00618337
0.00625375
0.00632365
0.00639304
0.00646191
0.00653023
0.00659799
0.00666515
0.00673171
0.00679765
0.00686294
0.00692757
0.00699152
0.00705479
0.00711734
0.00717917
0.00724027
0.00730062
0.00736022
0.00741904
0.00747708
0.00753433
0.00759079
0.00764644
0.00770127
0.00775529
0.00780848
0.00786084
0.00791237
0.00796306
0.00801291
0.00806192
0.00811009
0.00815742
0.00820391
0.00824955
0.00829436
0.00833833
0.00838146
0.00842376
0.00846524
0.00850589
0.00854573
0.00858475
0.00862297
0.00866039
0.00869701
0.00873285
0.00876792
0.00880221
0.00883574
0.00886851
0.00890055
0.00893184
0.00896241
0.00899227
0.00902142
0.00904987
0.00907764
0.00910473
0.00913115
0.00915692
0.00918205
0.00920654
0.00923042
0.00925368
0.00927634
0.00929841
0.0093199
0.00934082
0.00936119
0.00938102
0.00940031
0.00941907
0.00943732
0.00945507
0.00947233
0.00948911
0.00950542
0.00952127
0.00953666
0.00955162
0.00956615
0.00958027
0.00959397
0.00960727
0.00962018
0.00963271
0.00964487
0.00965667
0.00966812
0.00967922
0.00968998
0.00970042
0.00971055
0.00972036
0.00972987
0.00973908
0.00974801
0.00975666
0.00976504
0.00977316
0.00978102
0.00978863
0.009796
0.00980314
0.00981004
0.00981673
0.00982319
0.00982945
0.00983551
0.00984136
0.00984703
0.0098525
0.0098578
0.00986292
0.00986787
0.00987266
0.00987729
0.00988176
0.00988608
0.00989025
0.00989428
0.00989818
0.00990194
0.00990557
0.00990908
0.00991247
0.00991574
0.00991889
0.00992194
0.00992488
0.00992772
0.00993046
0.0099331
0.00993565
0.00993811
0.00994048
0.00994276
0.00994497
0.00994709
0.00994914
0.00995111
0.00995302
0.00995485
0.00995662
0.00995832
0.00995996
0.00996154
0.00996307
0.00996453
0.00996594
0.0099673
0.00996861
0.00996987
0.00997108
0.00997225
0.00997337
0.00997445
0.00997549
0.00997649
0.00997746
0.00997838
0.00997927
0.00998013
0.00998095
0.00998174
0.0099825
0.00998323
0.00998393
0.0099846
0.00998525
0.00998588
0.00998647
0.00998705
0.0099876
0.00998813
0.00998864
0.00998912
0.00998959
0.00999004
0.00999047
0.00999089
0.00999128
0.00999166
0.00999203
0.00999238
0.00999272
0.00999304
0.00999335
0.00999364
0.00999392
0.0099942
0.00999446
0.00999471
0.00999494
0.00999517
0.00999539
0.0099956
0.0099958
0.00999599
0.00999618
0.00999635
0.00999652
0.00999668
0.00999684
0.00999698
0.00999713
0.00999726
0.00999739
0.00999751
0.00999763
0.00999774
0.00999785
0.00999795
0.00999805
0.00999814
0.00999823
0.00999832
0.0099984
0.00999848
0.00999855
0.00999862
0.00999869
0.00999875
0.00999881
0.00999887
0.00999893
0.00999898
0.00999903
0.00999908
0.00999913
0.00999917
0.00999921
0.00999925
0.00999929
0.00999933
0.00999936
0.00999939
0.00999943
0.00999945
0.00999948
0.00999951
0.00999954
0.00999956
0.00999958
0.0099996
0.00999963
0.00999964
0.00999966
0.00999968
0.0099997
0.00999971
0.00999973
0.00999974
0.00999976
0.00999977
0.00999978
0.0099998
0.00999981
0.00999982
0.00999983
0.00999984
0.00999985
0.00999985
0.00999986
0.00999987
0.00999988
0.00999988
0.00999989
0.0099999
0.0099999
0.00999991
0.00999991
0.00999992
0.00999992
0.00999993
0.00999993
0.00999994
0.00999994
0.00999994
0.00999995
0.00999995
0.00999995
0.00999995
0.00999996
0.00999996
0.00999996
0.00999996
0.00999997
0.00999997
0.00999997
0.00999997
0.00999997
0.00999998
0.00999998
0.00999998
0.00999998
0.00999998
0.00999998
0.00999998
0.00999998
0.00999999
0.00999999
0.00999999
0.00999999
0.00999999
0.00999999
0.00999999
0.00999999
0.00999999
0.00999999
0.00999999
0.00999999
0.00999999
0.00999999
0.00999999
0.00999999
0.00999999
0.01
0.01
0.01
0.01
0.01
0.01
0.01
0.01
0.01
0.01
0.01
0.01
0.01
0.01
0.01
0.01
0.01
0.01
0.01
0.01
0.01
0.01
0.01
0.01
0.01
0.01
0.01
0.01
0.01
0.01
0.01
0.01
0.01
0.01
0.01
0.01
0.01
)
;
    }
    Wall
    {
        type            calculated;
        value           nonuniform List<scalar> 
400
(
0.00276623
0.00290617
0.00300898
0.00310305
0.00319253
0.0032778
0.00335982
0.0034395
0.00351748
0.00359419
0.00366999
0.00374514
0.00381985
0.00389427
0.00396852
0.00404269
0.00411685
0.00419104
0.00426529
0.00433962
0.00441405
0.00448856
0.00456316
0.00463784
0.00471257
0.00478734
0.00486213
0.00493692
0.00501168
0.00508639
0.00516103
0.00523557
0.00530998
0.00538423
0.0054583
0.00553217
0.0056058
0.00567917
0.00575226
0.00582503
0.00589747
0.00596955
0.00604123
0.00611251
0.00618335
0.00625373
0.00632363
0.00639302
0.00646189
0.00653021
0.00659796
0.00666513
0.00673169
0.00679762
0.00686291
0.00692754
0.00699149
0.00705476
0.00711731
0.00717914
0.00724024
0.00730059
0.00736018
0.007419
0.00747705
0.0075343
0.00759075
0.0076464
0.00770124
0.00775525
0.00780844
0.0078608
0.00791233
0.00796302
0.00801288
0.00806189
0.00811006
0.00815739
0.00820387
0.00824952
0.00829432
0.00833829
0.00838143
0.00842373
0.00846521
0.00850586
0.0085457
0.00858472
0.00862294
0.00866036
0.00869698
0.00873282
0.00876789
0.00880218
0.00883571
0.00886848
0.00890052
0.00893181
0.00896239
0.00899224
0.00902139
0.00904984
0.00907761
0.0091047
0.00913113
0.0091569
0.00918203
0.00920652
0.00923039
0.00925365
0.00927631
0.00929838
0.00931988
0.0093408
0.00936117
0.009381
0.00940028
0.00941905
0.0094373
0.00945505
0.00947231
0.00948909
0.0095054
0.00952125
0.00953665
0.00955161
0.00956614
0.00958025
0.00959395
0.00960725
0.00962017
0.0096327
0.00964486
0.00965666
0.0096681
0.00967921
0.00968997
0.00970041
0.00971053
0.00972034
0.00972985
0.00973907
0.009748
0.00975665
0.00976503
0.00977315
0.00978101
0.00978862
0.00979599
0.00980313
0.00981003
0.00981672
0.00982318
0.00982944
0.0098355
0.00984135
0.00984702
0.0098525
0.00985779
0.00986292
0.00986787
0.00987265
0.00987728
0.00988175
0.00988607
0.00989024
0.00989428
0.00989817
0.00990193
0.00990557
0.00990908
0.00991246
0.00991573
0.00991889
0.00992194
0.00992488
0.00992772
0.00993045
0.0099331
0.00993564
0.0099381
0.00994047
0.00994276
0.00994496
0.00994709
0.00994914
0.00995111
0.00995301
0.00995485
0.00995662
0.00995832
0.00995996
0.00996154
0.00996306
0.00996453
0.00996594
0.0099673
0.00996861
0.00996987
0.00997108
0.00997225
0.00997337
0.00997445
0.00997549
0.00997649
0.00997745
0.00997838
0.00997927
0.00998012
0.00998095
0.00998174
0.0099825
0.00998323
0.00998393
0.0099846
0.00998525
0.00998587
0.00998647
0.00998705
0.0099876
0.00998813
0.00998864
0.00998912
0.00998959
0.00999004
0.00999047
0.00999089
0.00999128
0.00999166
0.00999203
0.00999238
0.00999271
0.00999304
0.00999335
0.00999364
0.00999392
0.0099942
0.00999446
0.00999471
0.00999494
0.00999517
0.00999539
0.0099956
0.0099958
0.00999599
0.00999618
0.00999635
0.00999652
0.00999668
0.00999684
0.00999698
0.00999713
0.00999726
0.00999739
0.00999751
0.00999763
0.00999774
0.00999785
0.00999795
0.00999805
0.00999814
0.00999823
0.00999832
0.0099984
0.00999848
0.00999855
0.00999862
0.00999869
0.00999875
0.00999881
0.00999887
0.00999893
0.00999898
0.00999903
0.00999908
0.00999913
0.00999917
0.00999921
0.00999925
0.00999929
0.00999933
0.00999936
0.00999939
0.00999943
0.00999945
0.00999948
0.00999951
0.00999954
0.00999956
0.00999958
0.0099996
0.00999963
0.00999964
0.00999966
0.00999968
0.0099997
0.00999971
0.00999973
0.00999974
0.00999976
0.00999977
0.00999978
0.0099998
0.00999981
0.00999982
0.00999983
0.00999984
0.00999985
0.00999985
0.00999986
0.00999987
0.00999988
0.00999988
0.00999989
0.0099999
0.0099999
0.00999991
0.00999991
0.00999992
0.00999992
0.00999993
0.00999993
0.00999994
0.00999994
0.00999994
0.00999995
0.00999995
0.00999995
0.00999995
0.00999996
0.00999996
0.00999996
0.00999996
0.00999997
0.00999997
0.00999997
0.00999997
0.00999997
0.00999998
0.00999998
0.00999998
0.00999998
0.00999998
0.00999998
0.00999998
0.00999998
0.00999999
0.00999999
0.00999999
0.00999999
0.00999999
0.00999999
0.00999999
0.00999999
0.00999999
0.00999999
0.00999999
0.00999999
0.00999999
0.00999999
0.00999999
0.00999999
0.00999999
0.01
0.01
0.01
0.01
0.01
0.01
0.01
0.01
0.01
0.01
0.01
0.01
0.01
0.01
0.01
0.01
0.01
0.01
0.01
0.01
0.01
0.01
0.01
0.01
0.01
0.01
0.01
0.01
0.01
0.01
0.01
0.01
0.01
0.01
0.01
0.01
0.01
)
;
    }
}


// ************************************************************************* //
