/*--------------------------------*- C++ -*----------------------------------*\
  =========                 |
  \\      /  F ield         | OpenFOAM: The Open Source CFD Toolbox
   \\    /   O peration     | Website:  https://openfoam.org
    \\  /    A nd           | Version:  dev
     \\/     M anipulation  |
\*---------------------------------------------------------------------------*/
FoamFile
{
    format      ascii;
    class       volScalarField;
    location    "0.18";
    object      cov;
}
// * * * * * * * * * * * * * * * * * * * * * * * * * * * * * * * * * * * * * //

dimensions      [0 0 0 0 0 0 0];

internalField   uniform 0;

boundaryField
{
    frontAndBack
    {
        type            empty;
    }
    inlet
    {
        type            calculated;
        value           uniform 0;
    }
    outlet
    {
        type            calculated;
        value           uniform 0;
    }
    substrate
    {
        type            calculated;
        value           nonuniform List<scalar> 
400
(
0.723377
0.709383
0.699101
0.689694
0.680746
0.672221
0.664019
0.656051
0.648255
0.640583
0.633004
0.625488
0.618018
0.610576
0.603151
0.595734
0.588318
0.580898
0.573473
0.566039
0.558596
0.551145
0.543685
0.536217
0.528744
0.521267
0.513787
0.506308
0.498832
0.49136
0.483896
0.476443
0.469002
0.461576
0.454169
0.446782
0.439418
0.432081
0.424772
0.417495
0.410251
0.403043
0.395875
0.388747
0.381663
0.374625
0.367635
0.360696
0.353809
0.346977
0.340201
0.333485
0.326829
0.320235
0.313706
0.307243
0.300848
0.294521
0.288266
0.282083
0.275973
0.269938
0.263978
0.258096
0.252292
0.246567
0.240921
0.235356
0.229873
0.224471
0.219152
0.213916
0.208763
0.203694
0.198709
0.193808
0.188991
0.184258
0.179609
0.175045
0.170564
0.166167
0.161854
0.157624
0.153476
0.149411
0.145427
0.141525
0.137703
0.133961
0.130299
0.126715
0.123208
0.119779
0.116426
0.113149
0.109945
0.106816
0.103759
0.100773
0.0978582
0.095013
0.0922363
0.0895273
0.0868847
0.0843076
0.0817949
0.0793456
0.0769584
0.0746323
0.0723663
0.0701593
0.06801
0.0659175
0.0638807
0.0618983
0.0599695
0.058093
0.0562677
0.0544927
0.0527668
0.051089
0.0494582
0.0478734
0.0463335
0.0448376
0.0433846
0.0419735
0.0406033
0.0392731
0.0379819
0.0367287
0.0355127
0.0343328
0.0331883
0.0320781
0.0310015
0.0299576
0.0289454
0.0279643
0.0270134
0.0260918
0.0251989
0.0243338
0.0234957
0.022684
0.0218979
0.0211367
0.0203998
0.0196863
0.0189957
0.0183274
0.0176807
0.0170549
0.0164495
0.0158638
0.0152974
0.0147496
0.0142199
0.0137077
0.0132126
0.012734
0.0122714
0.0118243
0.0113924
0.010975
0.0105718
0.0101823
0.00980606
0.00944275
0.00909193
0.0087532
0.00842618
0.00811051
0.00780582
0.00751177
0.00722801
0.00695422
0.00669008
0.00643526
0.00618948
0.00595244
0.00572384
0.00550342
0.00529091
0.00508604
0.00488856
0.00469823
0.0045148
0.00433805
0.00416775
0.00400369
0.00384565
0.00369343
0.00354684
0.00340567
0.00326975
0.00313889
0.00301292
0.00289167
0.00277497
0.00266268
0.00255463
0.00245067
0.00235067
0.00225448
0.00216197
0.002073
0.00198746
0.00190522
0.00182616
0.00175016
0.00167713
0.00160694
0.0015395
0.00147471
0.00141247
0.00135269
0.00129527
0.00124014
0.0011872
0.00113638
0.00108759
0.00104077
0.000995828
0.000952707
0.000911335
0.000871646
0.000833575
0.000797063
0.000762049
0.000728476
0.00069629
0.000665436
0.000635864
0.000607524
0.000580369
0.000554351
0.000529428
0.000505556
0.000482693
0.000460801
0.00043984
0.000419775
0.000400568
0.000382187
0.000364598
0.000347768
0.000331669
0.000316269
0.000301542
0.000287458
0.000273993
0.000261121
0.000248817
0.000237059
0.000225823
0.000215087
0.000204832
0.000195037
0.000185683
0.000176751
0.000168224
0.000160083
0.000152314
0.0001449
0.000137826
0.000131077
0.00012464
0.0001185
0.000112646
0.000107065
0.000101744
9.66724e-05
9.18395e-05
8.72346e-05
8.28475e-05
7.86687e-05
7.46889e-05
7.08993e-05
6.72912e-05
6.38565e-05
6.05875e-05
5.74767e-05
5.45168e-05
5.1701e-05
4.90227e-05
4.64756e-05
4.40537e-05
4.17512e-05
3.95626e-05
3.74825e-05
3.5506e-05
3.36282e-05
3.18444e-05
3.01502e-05
2.85414e-05
2.7014e-05
2.5564e-05
2.41878e-05
2.28818e-05
2.16428e-05
2.04673e-05
1.93524e-05
1.82952e-05
1.72927e-05
1.63424e-05
1.54417e-05
1.45881e-05
1.37793e-05
1.30131e-05
1.22874e-05
1.16002e-05
1.09495e-05
1.03335e-05
9.75045e-06
9.19869e-06
8.67663e-06
8.18277e-06
7.71565e-06
7.27391e-06
6.85626e-06
6.46143e-06
6.08826e-06
5.73562e-06
5.40244e-06
5.0877e-06
4.79044e-06
4.50974e-06
4.24471e-06
3.99455e-06
3.75844e-06
3.53565e-06
3.32546e-06
3.1272e-06
2.94022e-06
2.76391e-06
2.5977e-06
2.44103e-06
2.2934e-06
2.15429e-06
2.02325e-06
1.89982e-06
1.7836e-06
1.67417e-06
1.57116e-06
1.47422e-06
1.38299e-06
1.29717e-06
1.21645e-06
1.14054e-06
1.06916e-06
1.00206e-06
9.38989e-07
8.79725e-07
8.24044e-07
7.71741e-07
7.2262e-07
6.76497e-07
6.33197e-07
5.92555e-07
5.54416e-07
5.18633e-07
4.85068e-07
4.53588e-07
4.24071e-07
3.964e-07
3.70466e-07
3.46164e-07
3.23397e-07
3.02073e-07
2.82105e-07
2.63412e-07
2.45917e-07
2.29549e-07
2.14239e-07
1.99925e-07
1.86546e-07
1.74048e-07
1.62378e-07
1.51488e-07
1.41333e-07
1.31873e-07
1.23068e-07
1.14885e-07
1.07292e-07
1.0026e-07
9.37651e-08
8.77859e-08
8.23048e-08
7.73078e-08
7.27851e-08
6.87308e-08
6.51436e-08
6.20266e-08
5.93875e-08
5.72387e-08
5.55969e-08
5.44818e-08
5.39148e-08
)
;
    }
    Wall
    {
        type            calculated;
        value           nonuniform List<scalar> 
400
(
0.723377
0.709383
0.699102
0.689695
0.680747
0.67222
0.664018
0.65605
0.648252
0.640581
0.633001
0.625486
0.618015
0.610573
0.603148
0.595731
0.588315
0.580896
0.573471
0.566038
0.558595
0.551144
0.543684
0.536216
0.528743
0.521266
0.513787
0.506308
0.498832
0.491361
0.483897
0.476443
0.469002
0.461577
0.45417
0.446783
0.43942
0.432083
0.424774
0.417497
0.410253
0.403045
0.395877
0.388749
0.381665
0.374627
0.367637
0.360698
0.353811
0.346979
0.340204
0.333487
0.326831
0.320238
0.313709
0.307246
0.300851
0.294524
0.288269
0.282086
0.275976
0.269941
0.263982
0.2581
0.252295
0.24657
0.240925
0.23536
0.229876
0.224475
0.219156
0.21392
0.208767
0.203698
0.198712
0.193811
0.188994
0.184261
0.179613
0.175048
0.170568
0.166171
0.161857
0.157627
0.153479
0.149414
0.14543
0.141528
0.137706
0.133964
0.130302
0.126718
0.123211
0.119782
0.116429
0.113152
0.109948
0.106819
0.103761
0.100776
0.0978609
0.0950156
0.092239
0.0895299
0.0868873
0.0843101
0.0817974
0.079348
0.0769608
0.0746347
0.0723686
0.0701615
0.0680122
0.0659197
0.0638828
0.0619004
0.0599715
0.058095
0.0562697
0.0544947
0.0527687
0.0510909
0.04946
0.0478752
0.0463353
0.0448393
0.0433862
0.0419751
0.0406049
0.0392746
0.0379834
0.0367302
0.0355141
0.0343342
0.0331896
0.0320795
0.0310028
0.0299588
0.0289467
0.0279655
0.0270146
0.026093
0.0252
0.0243349
0.0234968
0.0226851
0.0218989
0.0211377
0.0204007
0.0196873
0.0189967
0.0183283
0.0176815
0.0170557
0.0164503
0.0158646
0.0152982
0.0147503
0.0142206
0.0137084
0.0132133
0.0127346
0.012272
0.011825
0.011393
0.0109756
0.0105723
0.0101828
0.0098066
0.00944328
0.00909244
0.00875369
0.00842666
0.00811097
0.00780627
0.0075122
0.00722843
0.00695463
0.00669047
0.00643564
0.00618985
0.00595279
0.00572419
0.00550375
0.00529123
0.00508635
0.00488886
0.00469852
0.00451508
0.00433832
0.00416802
0.00400395
0.0038459
0.00369367
0.00354707
0.00340589
0.00326996
0.00313909
0.00301312
0.00289186
0.00277516
0.00266286
0.0025548
0.00245084
0.00235083
0.00225463
0.00216212
0.00207315
0.0019876
0.00190535
0.00182629
0.00175029
0.00167725
0.00160706
0.00153962
0.00147482
0.00141258
0.00135279
0.00129537
0.00124023
0.00118729
0.00113647
0.00108768
0.00104085
0.000995906
0.000952782
0.000911407
0.000871715
0.000833642
0.000797127
0.00076211
0.000728535
0.000696346
0.000665491
0.000635917
0.000607575
0.000580417
0.000554398
0.000529473
0.000505599
0.000482735
0.000460841
0.000439879
0.000419811
0.000400603
0.000382221
0.00036463
0.000347799
0.000331698
0.000316298
0.000301569
0.000287484
0.000274018
0.000261145
0.00024884
0.000237081
0.000225844
0.000215108
0.000204852
0.000195056
0.000185701
0.000176768
0.00016824
0.000160099
0.000152329
0.000144914
0.00013784
0.00013109
0.000124652
0.000118512
0.000112658
0.000107076
0.000101754
9.66825e-05
9.18491e-05
8.72437e-05
8.28563e-05
7.86771e-05
7.46969e-05
7.09069e-05
6.72985e-05
6.38635e-05
6.05942e-05
5.7483e-05
5.45228e-05
5.17067e-05
4.90282e-05
4.64808e-05
4.40587e-05
4.1756e-05
3.95671e-05
3.74869e-05
3.55101e-05
3.36321e-05
3.18481e-05
3.01538e-05
2.85448e-05
2.70172e-05
2.55671e-05
2.41907e-05
2.28846e-05
2.16454e-05
2.04698e-05
1.93548e-05
1.82975e-05
1.72949e-05
1.63445e-05
1.54436e-05
1.459e-05
1.37811e-05
1.30148e-05
1.22891e-05
1.16017e-05
1.0951e-05
1.03349e-05
9.75177e-06
9.19994e-06
8.67782e-06
8.18389e-06
7.71672e-06
7.27493e-06
6.85722e-06
6.46234e-06
6.08913e-06
5.73644e-06
5.40322e-06
5.08844e-06
4.79114e-06
4.5104e-06
4.24534e-06
3.99514e-06
3.759e-06
3.53618e-06
3.32597e-06
3.12767e-06
2.94067e-06
2.76434e-06
2.5981e-06
2.44142e-06
2.29376e-06
2.15463e-06
2.02357e-06
1.90013e-06
1.78388e-06
1.67444e-06
1.57142e-06
1.47446e-06
1.38322e-06
1.29739e-06
1.21666e-06
1.14073e-06
1.06934e-06
1.00223e-06
9.39151e-07
8.79877e-07
8.24188e-07
7.71877e-07
7.22748e-07
6.76617e-07
6.3331e-07
5.92662e-07
5.54517e-07
5.18728e-07
4.85157e-07
4.53672e-07
4.2415e-07
3.96475e-07
3.70536e-07
3.4623e-07
3.23459e-07
3.02131e-07
2.8216e-07
2.63463e-07
2.45966e-07
2.29594e-07
2.14282e-07
1.99965e-07
1.86584e-07
1.74083e-07
1.62411e-07
1.51519e-07
1.41362e-07
1.319e-07
1.23094e-07
1.14909e-07
1.07314e-07
1.00281e-07
9.37851e-08
8.78048e-08
8.23226e-08
7.73246e-08
7.2801e-08
6.87459e-08
6.5158e-08
6.20404e-08
5.94009e-08
5.72517e-08
5.5609e-08
5.4492e-08
5.39236e-08
)
;
    }
}


// ************************************************************************* //
