/*--------------------------------*- C++ -*----------------------------------*\
  =========                 |
  \\      /  F ield         | OpenFOAM: The Open Source CFD Toolbox
   \\    /   O peration     | Website:  https://openfoam.org
    \\  /    A nd           | Version:  dev
     \\/     M anipulation  |
\*---------------------------------------------------------------------------*/
FoamFile
{
    format      ascii;
    class       volScalarField;
    location    "0.18";
    object      Exp1;
}
// * * * * * * * * * * * * * * * * * * * * * * * * * * * * * * * * * * * * * //

dimensions      [0 0 0 0 0 0 0];

internalField   uniform 0;

boundaryField
{
    frontAndBack
    {
        type            empty;
    }
    inlet
    {
        type            calculated;
        value           uniform 0;
    }
    outlet
    {
        type            calculated;
        value           uniform 0;
    }
    substrate
    {
        type            calculated;
        value           nonuniform List<scalar> 
400
(
3.80312e-05
0.000121047
0.000212115
0.000310637
0.000416436
0.000529614
0.000650231
0.000778332
0.000913975
0.00105722
0.0012081
0.00136667
0.00153292
0.00170685
0.00188839
0.00207748
0.00227399
0.00247777
0.00268864
0.00290638
0.00313072
0.00336138
0.00359804
0.00384033
0.00408787
0.00434026
0.00459705
0.00485779
0.00512199
0.00538915
0.00565876
0.00593028
0.00620317
0.00647688
0.00675084
0.0070245
0.00729728
0.00756863
0.00783798
0.00810477
0.00836845
0.00862849
0.00888436
0.00913554
0.00938154
0.00962189
0.00985611
0.0100838
0.0103045
0.0105179
0.0107235
0.0109211
0.0111103
0.0112908
0.0114625
0.011625
0.0117782
0.0119219
0.0120559
0.0121802
0.0122946
0.0123991
0.0124937
0.0125784
0.0126531
0.012718
0.012773
0.0128184
0.0128541
0.0128803
0.0128972
0.012905
0.0129037
0.0128938
0.0128752
0.0128482
0.0128131
0.0127701
0.0127195
0.0126615
0.0125964
0.0125244
0.0124459
0.0123611
0.0122703
0.0121738
0.0120719
0.0119648
0.0118529
0.0117363
0.0116155
0.0114906
0.0113619
0.0112297
0.0110943
0.0109559
0.0108147
0.0106711
0.0105252
0.0103772
0.0102275
0.0100762
0.00992347
0.0097696
0.00961475
0.00945912
0.00930288
0.0091462
0.00898927
0.00883224
0.00867526
0.00851847
0.00836202
0.00820604
0.00805066
0.00789599
0.00774215
0.00758925
0.00743737
0.00728663
0.0071371
0.00698887
0.00684202
0.00669662
0.00655273
0.00641042
0.00626975
0.00613076
0.00599351
0.00585803
0.00572437
0.00559256
0.00546264
0.00533463
0.00520855
0.00508443
0.00496228
0.00484212
0.00472397
0.00460782
0.00449368
0.00438157
0.00427148
0.0041634
0.00405735
0.0039533
0.00385126
0.00375122
0.00365316
0.00355707
0.00346295
0.00337077
0.00328052
0.00319218
0.00310573
0.00302117
0.00293845
0.00285757
0.00277849
0.00270121
0.00262569
0.00255191
0.00247985
0.00240948
0.00234078
0.00227372
0.00220827
0.00214441
0.00208212
0.00202136
0.0019621
0.00190433
0.00184802
0.00179313
0.00173965
0.00168754
0.00163678
0.00158734
0.0015392
0.00149232
0.00144669
0.00140228
0.00135905
0.00131699
0.00127608
0.00123628
0.00119757
0.00115992
0.00112332
0.00108774
0.00105315
0.00101954
0.000986876
0.000955139
0.000924308
0.00089436
0.000865274
0.000837029
0.000809605
0.000782981
0.000757137
0.000732055
0.000707713
0.000684095
0.000661181
0.000638953
0.000617394
0.000596485
0.000576211
0.000556554
0.000537499
0.000519028
0.000501127
0.00048378
0.000466972
0.000450688
0.000434915
0.000419638
0.000404844
0.000390519
0.00037665
0.000363224
0.00035023
0.000337654
0.000325485
0.000313711
0.000302321
0.000291305
0.00028065
0.000270347
0.000260386
0.000250756
0.000241448
0.000232452
0.000223759
0.00021536
0.000207246
0.000199409
0.000191839
0.00018453
0.000177474
0.000170661
0.000164086
0.00015774
0.000151617
0.00014571
0.000140011
0.000134515
0.000129214
0.000124103
0.000119176
0.000114427
0.00010985
0.000105439
0.00010119
9.70965e-05
9.31538e-05
8.93569e-05
8.57011e-05
8.21816e-05
7.8794e-05
7.55338e-05
7.23967e-05
6.93785e-05
6.64753e-05
6.36832e-05
6.09982e-05
5.84168e-05
5.59353e-05
5.35504e-05
5.12585e-05
4.90565e-05
4.69412e-05
4.49095e-05
4.29584e-05
4.10852e-05
3.92869e-05
3.75609e-05
3.59046e-05
3.43154e-05
3.27909e-05
3.13287e-05
2.99264e-05
2.8582e-05
2.72932e-05
2.6058e-05
2.48743e-05
2.37401e-05
2.26537e-05
2.16132e-05
2.06168e-05
1.96628e-05
1.87496e-05
1.78757e-05
1.70394e-05
1.62393e-05
1.5474e-05
1.47421e-05
1.40423e-05
1.33732e-05
1.27337e-05
1.21226e-05
1.15387e-05
1.09809e-05
1.04482e-05
9.93946e-06
9.45375e-06
8.99011e-06
8.54763e-06
8.12541e-06
7.72261e-06
7.3384e-06
6.97201e-06
6.62267e-06
6.28965e-06
5.97225e-06
5.66979e-06
5.38164e-06
5.10716e-06
4.84577e-06
4.59687e-06
4.35993e-06
4.13441e-06
3.91981e-06
3.71563e-06
3.52141e-06
3.3367e-06
3.16107e-06
2.99411e-06
2.83541e-06
2.68461e-06
2.54133e-06
2.40523e-06
2.27598e-06
2.15325e-06
2.03673e-06
1.92615e-06
1.82121e-06
1.72165e-06
1.62721e-06
1.53765e-06
1.45273e-06
1.37223e-06
1.29593e-06
1.22363e-06
1.15513e-06
1.09025e-06
1.02881e-06
9.70638e-07
9.15571e-07
8.63454e-07
8.1414e-07
7.67487e-07
7.23363e-07
6.81637e-07
6.42188e-07
6.049e-07
5.69662e-07
5.36367e-07
5.04916e-07
4.75214e-07
4.47167e-07
4.20691e-07
3.95703e-07
3.72124e-07
3.4988e-07
3.289e-07
3.09117e-07
2.90468e-07
2.7289e-07
2.56329e-07
2.40727e-07
2.26035e-07
2.12204e-07
1.99187e-07
1.8694e-07
1.75424e-07
1.64598e-07
1.54428e-07
1.44878e-07
1.35917e-07
1.27516e-07
1.19646e-07
1.12285e-07
1.05407e-07
9.89939e-08
9.30263e-08
8.7489e-08
8.23689e-08
7.76557e-08
7.3342e-08
6.94235e-08
6.58993e-08
6.27717e-08
6.0047e-08
5.77348e-08
5.58488e-08
5.44055e-08
5.34243e-08
5.29251e-08
)
;
    }
    Wall
    {
        type            calculated;
        value           nonuniform List<scalar> 
400
(
3.80296e-05
0.000121043
0.00021211
0.000310631
0.000416428
0.000529602
0.000650213
0.000778308
0.000913943
0.00105718
0.00120805
0.00136661
0.00153285
0.00170676
0.00188828
0.00207735
0.00227385
0.00247761
0.00268847
0.00290618
0.00313051
0.00336115
0.00359778
0.00384005
0.00408757
0.00433994
0.00459671
0.00485743
0.00512161
0.00538875
0.00565834
0.00592984
0.00620271
0.0064764
0.00675034
0.00702398
0.00729675
0.00756808
0.00783741
0.00810418
0.00836784
0.00862787
0.00888372
0.00913489
0.00938087
0.00962121
0.00985542
0.0100831
0.0103038
0.0105171
0.0107228
0.0109203
0.0111095
0.0112901
0.0114617
0.0116243
0.0117774
0.0119211
0.0120551
0.0121794
0.0122939
0.0123984
0.012493
0.0125777
0.0126524
0.0127173
0.0127723
0.0128177
0.0128534
0.0128797
0.0128966
0.0129043
0.0129031
0.0128932
0.0128746
0.0128476
0.0128125
0.0127696
0.0127189
0.0126609
0.0125958
0.0125239
0.0124454
0.0123606
0.0122699
0.0121734
0.0120715
0.0119644
0.0118525
0.0117359
0.0116151
0.0114902
0.0113615
0.0112294
0.011094
0.0109556
0.0108144
0.0106708
0.0105249
0.010377
0.0102273
0.0100759
0.00992326
0.00976939
0.00961456
0.00945893
0.0093027
0.00914604
0.00898912
0.0088321
0.00867512
0.00851835
0.00836191
0.00820594
0.00805056
0.0078959
0.00774207
0.00758917
0.00743731
0.00728657
0.00713705
0.00698882
0.00684198
0.00669658
0.0065527
0.0064104
0.00626973
0.00613074
0.00599349
0.00585802
0.00572436
0.00559256
0.00546264
0.00533463
0.00520856
0.00508444
0.00496229
0.00484214
0.00472398
0.00460784
0.00449371
0.00438159
0.0042715
0.00416343
0.00405738
0.00395333
0.00385129
0.00375125
0.00365319
0.00355711
0.00346298
0.0033708
0.00328055
0.00319222
0.00310577
0.0030212
0.00293849
0.00285761
0.00277853
0.00270125
0.00262573
0.00255195
0.00247989
0.00240952
0.00234082
0.00227376
0.00220831
0.00214445
0.00208216
0.00202139
0.00196214
0.00190437
0.00184806
0.00179317
0.00173969
0.00168758
0.00163682
0.00158738
0.00153923
0.00149236
0.00144672
0.00140231
0.00135908
0.00131703
0.00127611
0.00123631
0.0011976
0.00115995
0.00112335
0.00108777
0.00105318
0.00101957
0.000986904
0.000955166
0.000924334
0.000894386
0.000865299
0.000837054
0.00080963
0.000783005
0.000757161
0.000732078
0.000707736
0.000684117
0.000661203
0.000638974
0.000617415
0.000596506
0.000576231
0.000556574
0.000537518
0.000519047
0.000501145
0.000483798
0.000466989
0.000450706
0.000434932
0.000419655
0.00040486
0.000390534
0.000376665
0.000363239
0.000350244
0.000337668
0.000325498
0.000313724
0.000302334
0.000291317
0.000280662
0.000270359
0.000260398
0.000250767
0.000241459
0.000232463
0.000223769
0.00021537
0.000207256
0.000199418
0.000191849
0.00018454
0.000177483
0.00017067
0.000164094
0.000157748
0.000151625
0.000145717
0.000140018
0.000134522
0.000129221
0.00012411
0.000119183
0.000114434
0.000109856
0.000105445
0.000101196
9.71022e-05
9.31593e-05
8.93622e-05
8.57062e-05
8.21866e-05
7.87988e-05
7.55384e-05
7.24012e-05
6.93829e-05
6.64796e-05
6.36873e-05
6.10022e-05
5.84207e-05
5.59391e-05
5.3554e-05
5.1262e-05
4.90598e-05
4.69444e-05
4.49126e-05
4.29615e-05
4.10881e-05
3.92897e-05
3.75636e-05
3.59072e-05
3.43179e-05
3.27933e-05
3.1331e-05
2.99287e-05
2.85842e-05
2.72953e-05
2.606e-05
2.48762e-05
2.3742e-05
2.26555e-05
2.16149e-05
2.06185e-05
1.96644e-05
1.87512e-05
1.78772e-05
1.70408e-05
1.62407e-05
1.54754e-05
1.47434e-05
1.40435e-05
1.33744e-05
1.27349e-05
1.21237e-05
1.15398e-05
1.0982e-05
1.04492e-05
9.9404e-06
9.45465e-06
8.99098e-06
8.54846e-06
8.12621e-06
7.72337e-06
7.33914e-06
6.97271e-06
6.62334e-06
6.29029e-06
5.97287e-06
5.67039e-06
5.38221e-06
5.10771e-06
4.84629e-06
4.59737e-06
4.36041e-06
4.13487e-06
3.92025e-06
3.71605e-06
3.52181e-06
3.33709e-06
3.16144e-06
2.99446e-06
2.83575e-06
2.68493e-06
2.54163e-06
2.40552e-06
2.27625e-06
2.15351e-06
2.03699e-06
1.92639e-06
1.82144e-06
1.72187e-06
1.62742e-06
1.53785e-06
1.45292e-06
1.37241e-06
1.2961e-06
1.22379e-06
1.15529e-06
1.0904e-06
1.02895e-06
9.70772e-07
9.15698e-07
8.63575e-07
8.14254e-07
7.67596e-07
7.23466e-07
6.81735e-07
6.42281e-07
6.04988e-07
5.69745e-07
5.36447e-07
5.04992e-07
4.75285e-07
4.47235e-07
4.20756e-07
3.95764e-07
3.72182e-07
3.49935e-07
3.28952e-07
3.09167e-07
2.90514e-07
2.72935e-07
2.5637e-07
2.40767e-07
2.26073e-07
2.12239e-07
1.9922e-07
1.86972e-07
1.75454e-07
1.64627e-07
1.54454e-07
1.44903e-07
1.35941e-07
1.27538e-07
1.19668e-07
1.12305e-07
1.05426e-07
9.90118e-08
9.30433e-08
8.7505e-08
8.23841e-08
7.76701e-08
7.33557e-08
6.94366e-08
6.59118e-08
6.27838e-08
6.00586e-08
5.77462e-08
5.58598e-08
5.44159e-08
5.3433e-08
5.29325e-08
)
;
    }
}


// ************************************************************************* //
