/*--------------------------------*- C++ -*----------------------------------*\
  =========                 |
  \\      /  F ield         | OpenFOAM: The Open Source CFD Toolbox
   \\    /   O peration     | Website:  https://openfoam.org
    \\  /    A nd           | Version:  dev
     \\/     M anipulation  |
\*---------------------------------------------------------------------------*/
FoamFile
{
    format      ascii;
    class       volScalarField;
    location    "0.18";
    object      N1;
}
// * * * * * * * * * * * * * * * * * * * * * * * * * * * * * * * * * * * * * //

dimensions      [0 0 0 0 0 0 0];

internalField   nonuniform List<scalar> 
8000
(
0.000288751
0.000919277
0.00161118
0.00235993
0.0031642
0.00402477
0.00494211
0.0059166
0.00694867
0.0080388
0.00918736
0.0103946
0.0116607
0.0129854
0.0143684
0.0158093
0.017307
0.0188604
0.0204683
0.0221288
0.0238401
0.0256
0.0274059
0.0292553
0.0311453
0.0330726
0.035034
0.0370261
0.039045
0.0410871
0.0431483
0.0452247
0.047312
0.0494062
0.0515028
0.0535976
0.0556863
0.0577645
0.059828
0.0618725
0.0638937
0.0658875
0.06785
0.0697772
0.0716652
0.0735104
0.0753092
0.0770584
0.0787547
0.0803951
0.0819768
0.0834972
0.0849538
0.0863446
0.0876674
0.0889206
0.0901025
0.0912119
0.0922476
0.0932088
0.0940947
0.0949049
0.0956391
0.0962972
0.0968793
0.0973858
0.0978172
0.098174
0.0984572
0.0986676
0.0988065
0.098875
0.0988745
0.0988072
0.0986735
0.0984754
0.0982147
0.0978934
0.0975132
0.0970764
0.0965848
0.0960406
0.0954459
0.0948027
0.0941134
0.0933799
0.0926046
0.0917895
0.0909368
0.0900486
0.0891271
0.0881743
0.0871924
0.0861833
0.085149
0.0840916
0.0830129
0.0819148
0.0807992
0.0796677
0.0785222
0.0773643
0.0761956
0.0750177
0.0738321
0.0726403
0.0714436
0.0702435
0.0690412
0.0678379
0.0666348
0.0654331
0.0642338
0.063038
0.0618466
0.0606605
0.0594807
0.0583079
0.0571429
0.0559864
0.0548392
0.0537019
0.052575
0.0514592
0.0503549
0.0492626
0.0481828
0.0471158
0.0460621
0.045022
0.0439957
0.0429837
0.041986
0.0410029
0.0400347
0.0390814
0.0381433
0.0372203
0.0363127
0.0354205
0.0345438
0.0336825
0.0328367
0.0320063
0.0311915
0.0303921
0.029608
0.0288393
0.0280858
0.0273474
0.0266241
0.0259157
0.0252221
0.0245432
0.0238788
0.0232288
0.0225931
0.0219714
0.0213636
0.0207696
0.0201891
0.019622
0.019068
0.0185271
0.017999
0.0174834
0.0169803
0.0164894
0.0160105
0.0155434
0.0150878
0.0146437
0.0142107
0.0137888
0.0133775
0.0129769
0.0125866
0.0122065
0.0118363
0.0114759
0.0111251
0.0107836
0.0104512
0.0101278
0.0098132
0.00950716
0.0092095
0.00892005
0.00863861
0.008365
0.00809905
0.00784057
0.0075894
0.00734535
0.00710827
0.00687797
0.00665431
0.00643711
0.00622622
0.00602148
0.00582274
0.00562986
0.00544267
0.00526104
0.00508483
0.0049139
0.0047481
0.00458731
0.0044314
0.00428023
0.00413369
0.00399164
0.00385398
0.00372057
0.00359131
0.00346609
0.00334478
0.0032273
0.00311352
0.00300336
0.0028967
0.00279345
0.00269351
0.0025968
0.00250321
0.00241266
0.00232507
0.00224035
0.00215841
0.00207917
0.00200256
0.0019285
0.00185692
0.00178773
0.00172088
0.00165628
0.00159388
0.00153361
0.00147539
0.00141918
0.00136491
0.00131252
0.00126195
0.00121315
0.00116606
0.00112062
0.0010768
0.00103453
0.000993761
0.000954455
0.000916563
0.000880038
0.000844836
0.000810915
0.000778234
0.000746751
0.000716429
0.000687228
0.000659112
0.000632044
0.000605991
0.000580917
0.00055679
0.000533578
0.00051125
0.000489776
0.000469127
0.000449274
0.000430189
0.000411847
0.000394221
0.000377285
0.000361017
0.000345391
0.000330386
0.000315979
0.000302149
0.000288875
0.000276136
0.000263914
0.000252189
0.000240944
0.00023016
0.00021982
0.000209908
0.000200408
0.000191304
0.000182582
0.000174226
0.000166224
0.00015856
0.000151224
0.000144201
0.000137479
0.000131047
0.000124894
0.000119008
0.000113379
0.000107997
0.000102851
9.79333e-05
9.32333e-05
8.87426e-05
8.44527e-05
8.03554e-05
7.64428e-05
7.27073e-05
6.91416e-05
6.57385e-05
6.24913e-05
5.93934e-05
5.64385e-05
5.36207e-05
5.09339e-05
4.83727e-05
4.59316e-05
4.36055e-05
4.13894e-05
3.92784e-05
3.7268e-05
3.53538e-05
3.35316e-05
3.17971e-05
3.01467e-05
2.85764e-05
2.70827e-05
2.56621e-05
2.43113e-05
2.30272e-05
2.18067e-05
2.06469e-05
1.9545e-05
1.84983e-05
1.75042e-05
1.65603e-05
1.56642e-05
1.48137e-05
1.40067e-05
1.3241e-05
1.25147e-05
1.18258e-05
1.11727e-05
1.05536e-05
9.9668e-06
9.41075e-06
8.88395e-06
8.38497e-06
7.91244e-06
7.46503e-06
7.04152e-06
6.64069e-06
6.26143e-06
5.90263e-06
5.56327e-06
5.24237e-06
4.93897e-06
4.65219e-06
4.38118e-06
4.12512e-06
3.88324e-06
3.6548e-06
3.4391e-06
3.23547e-06
3.04329e-06
2.86195e-06
2.69088e-06
2.52952e-06
2.37738e-06
2.23394e-06
2.09876e-06
1.97138e-06
1.8514e-06
1.7384e-06
1.63203e-06
1.53192e-06
1.43773e-06
1.34916e-06
1.2659e-06
1.18768e-06
1.11423e-06
1.04532e-06
9.80703e-07
9.20183e-07
8.63564e-07
8.10671e-07
7.61347e-07
7.15451e-07
6.72864e-07
6.33486e-07
5.97238e-07
5.64062e-07
5.33926e-07
5.06822e-07
4.82768e-07
4.61812e-07
4.4403e-07
4.29524e-07
4.18425e-07
4.10879e-07
4.07039e-07
0.000282927
0.000906393
0.00159268
0.00233919
0.00314401
0.00400698
0.00492822
0.00590798
0.00694665
0.00804469
0.00920249
0.0104204
0.0116984
0.0130367
0.0144347
0.0158921
0.017408
0.0189813
0.0206107
0.0222945
0.0240307
0.0258173
0.0276518
0.0295315
0.0314535
0.0334147
0.0354117
0.0374411
0.0394991
0.0415819
0.0436855
0.0458058
0.0479386
0.0500797
0.0522247
0.0543691
0.0565086
0.0586388
0.0607553
0.0628536
0.0649296
0.0669789
0.0689974
0.070981
0.0729258
0.074828
0.0766839
0.0784901
0.0802433
0.0819403
0.0835781
0.0851541
0.0866657
0.0881105
0.0894866
0.0907919
0.0920249
0.0931841
0.0942682
0.0952764
0.0962078
0.0970619
0.0978382
0.0985367
0.0991575
0.0997007
0.100167
0.100556
0.10087
0.101109
0.101275
0.101368
0.10139
0.101343
0.101228
0.101045
0.100799
0.100489
0.100119
0.0996897
0.0992038
0.0986632
0.0980703
0.097427
0.0967355
0.0959982
0.0952172
0.0943948
0.093533
0.0926342
0.0917005
0.090734
0.0897369
0.0887113
0.0876592
0.0865826
0.0854836
0.0843641
0.0832259
0.0820709
0.0809009
0.0797176
0.0785226
0.0773177
0.0761044
0.0748842
0.0736585
0.0724288
0.0711964
0.0699626
0.0687285
0.0674955
0.0662646
0.0650369
0.0638134
0.0625951
0.0613828
0.0601774
0.0589798
0.0577908
0.0566109
0.055441
0.0542816
0.0531333
0.0519966
0.0508722
0.0497604
0.0486616
0.0475763
0.0465048
0.0454475
0.0444046
0.0433764
0.0423631
0.041365
0.0403821
0.0394148
0.038463
0.0375269
0.0366066
0.0357021
0.0348135
0.0339408
0.033084
0.032243
0.0314179
0.0306086
0.0298151
0.0290372
0.0282748
0.027528
0.0267965
0.0260802
0.025379
0.0246928
0.0240215
0.0233647
0.0227225
0.0220946
0.0214809
0.0208811
0.0202951
0.0197227
0.0191637
0.0186179
0.0180851
0.0175651
0.0170577
0.0165627
0.0160798
0.0156089
0.0151498
0.0147022
0.0142659
0.0138408
0.0134265
0.013023
0.0126299
0.0122472
0.0118745
0.0115117
0.0111585
0.0108148
0.0104803
0.0101549
0.00983841
0.00953055
0.00923116
0.00894005
0.00865704
0.00838194
0.00811457
0.00785474
0.00760228
0.00735702
0.00711877
0.00688738
0.00666268
0.00644449
0.00623267
0.00602705
0.00582748
0.00563381
0.00544588
0.00526355
0.00508668
0.00491512
0.00474874
0.00458741
0.00443098
0.00427933
0.00413234
0.00398988
0.00385182
0.00371805
0.00358846
0.00346292
0.00334133
0.00322358
0.00310956
0.00299917
0.0028923
0.00278887
0.00268877
0.0025919
0.00249818
0.00240751
0.00231982
0.002235
0.00215298
0.00207368
0.00199702
0.00192291
0.0018513
0.00178209
0.00171522
0.00165062
0.00158822
0.00152796
0.00146976
0.00141358
0.00135934
0.00130698
0.00125645
0.0012077
0.00116066
0.00111528
0.00107151
0.00102931
0.00098861
0.000949374
0.000911555
0.000875105
0.00083998
0.000806139
0.000773539
0.000742139
0.000711901
0.000682785
0.000654755
0.000627774
0.000601807
0.000576821
0.000552783
0.000529659
0.000507419
0.000486033
0.000465471
0.000445705
0.000426707
0.000408451
0.00039091
0.00037406
0.000357875
0.000342333
0.00032741
0.000313084
0.000299334
0.000286139
0.000273478
0.000261332
0.000249683
0.000238511
0.0002278
0.000217531
0.000207689
0.000198258
0.000189221
0.000180565
0.000172274
0.000164334
0.000156733
0.000149456
0.000142492
0.000135828
0.000129452
0.000123354
0.000117521
0.000111944
0.000106612
0.000101516
9.66453e-05
9.19917e-05
8.75462e-05
8.33002e-05
7.92455e-05
7.53742e-05
7.16789e-05
6.8152e-05
6.47866e-05
6.1576e-05
5.85135e-05
5.55929e-05
5.28082e-05
5.01536e-05
4.76235e-05
4.52124e-05
4.29153e-05
4.07272e-05
3.86433e-05
3.66591e-05
3.47701e-05
3.29722e-05
3.12612e-05
2.96334e-05
2.80849e-05
2.66122e-05
2.52119e-05
2.38806e-05
2.26153e-05
2.14128e-05
2.02704e-05
1.91851e-05
1.81544e-05
1.71758e-05
1.62467e-05
1.53648e-05
1.4528e-05
1.3734e-05
1.29809e-05
1.22666e-05
1.15894e-05
1.09474e-05
1.03388e-05
9.76221e-06
9.21591e-06
8.69843e-06
8.20837e-06
7.74437e-06
7.30514e-06
6.88943e-06
6.49607e-06
6.12394e-06
5.77196e-06
5.43911e-06
5.12442e-06
4.82696e-06
4.54585e-06
4.28024e-06
4.02933e-06
3.79237e-06
3.56861e-06
3.35738e-06
3.15802e-06
2.96989e-06
2.79241e-06
2.62502e-06
2.46717e-06
2.31836e-06
2.1781e-06
2.04595e-06
1.92145e-06
1.80421e-06
1.69383e-06
1.58995e-06
1.49222e-06
1.4003e-06
1.3139e-06
1.23272e-06
1.1565e-06
1.08496e-06
1.0179e-06
9.5507e-07
8.96287e-07
8.41366e-07
7.90141e-07
7.42468e-07
6.98221e-07
6.57296e-07
6.19608e-07
5.85098e-07
5.5373e-07
5.25497e-07
5.00416e-07
4.78537e-07
4.59939e-07
4.44735e-07
4.33064e-07
4.25095e-07
4.21016e-07
0.000277729
0.000890444
0.00156434
0.00229982
0.00309618
0.00395293
0.00486991
0.00584719
0.00688502
0.00798375
0.00914375
0.0103653
0.0116486
0.0129936
0.0144
0.0158673
0.0173947
0.0189812
0.0206254
0.0223257
0.0240803
0.025887
0.0277434
0.0296467
0.0315943
0.0335828
0.0356089
0.0376692
0.03976
0.0418773
0.0440171
0.0461754
0.0483479
0.0505302
0.0527179
0.0549065
0.0570917
0.0592689
0.0614335
0.0635812
0.0657075
0.0678081
0.0698787
0.0719151
0.0739133
0.0758694
0.0777795
0.0796401
0.0814478
0.0831992
0.0848914
0.0865214
0.0880866
0.0895845
0.0910129
0.0923699
0.0936536
0.0948625
0.0959953
0.0970509
0.0980285
0.0989272
0.0997469
0.100487
0.101148
0.10173
0.102232
0.102657
0.103004
0.103274
0.103468
0.103588
0.103635
0.103612
0.103518
0.103355
0.103126
0.102831
0.102474
0.102056
0.101579
0.101046
0.100459
0.0998189
0.0991292
0.0983918
0.097609
0.0967831
0.0959162
0.0950106
0.0940686
0.0930923
0.092084
0.0910457
0.0899796
0.0888879
0.0877724
0.0866352
0.0854783
0.0843036
0.0831128
0.0819078
0.0806904
0.0794621
0.0782246
0.0769796
0.0757284
0.0744726
0.0732135
0.0719526
0.0706909
0.0694299
0.0681706
0.0669142
0.0656617
0.0644141
0.0631725
0.0619375
0.0607103
0.0594914
0.0582817
0.0570819
0.0558926
0.0547145
0.0535482
0.0523941
0.0512527
0.0501246
0.0490101
0.0479095
0.0468234
0.0457519
0.0446953
0.0436539
0.0426279
0.0416176
0.0406229
0.0396442
0.0386815
0.0377349
0.0368045
0.0358903
0.0349924
0.0341107
0.0332453
0.032396
0.031563
0.0307461
0.0299452
0.0291603
0.0283912
0.0276379
0.0269003
0.0261781
0.0254713
0.0247797
0.0241032
0.0234415
0.0227945
0.0221621
0.0215441
0.0209402
0.0203503
0.0197741
0.0192116
0.0186624
0.0181263
0.0176032
0.0170929
0.0165951
0.0161095
0.0156361
0.0151746
0.0147247
0.0142863
0.0138591
0.0134429
0.0130375
0.0126427
0.0122583
0.011884
0.0115197
0.0111652
0.0108201
0.0104845
0.0101579
0.00984026
0.00953137
0.00923101
0.00893899
0.00865512
0.00837922
0.0081111
0.00785058
0.00759747
0.0073516
0.00711279
0.00688088
0.00665569
0.00643707
0.00622484
0.00601885
0.00581893
0.00562495
0.00543674
0.00525416
0.00507706
0.0049053
0.00473874
0.00457725
0.00442069
0.00426893
0.00412184
0.0039793
0.00384119
0.00370738
0.00357775
0.0034522
0.00333061
0.00321288
0.00309888
0.00298853
0.00288171
0.00277833
0.0026783
0.00258151
0.00248787
0.00239729
0.00230969
0.00222498
0.00214308
0.00206389
0.00198735
0.00191337
0.00184188
0.00177281
0.00170608
0.00164162
0.00157936
0.00151924
0.0014612
0.00140516
0.00135107
0.00129887
0.00124849
0.00119989
0.00115301
0.00110778
0.00106417
0.00102212
0.000981576
0.000942495
0.000904828
0.000868531
0.000833559
0.000799868
0.000767417
0.000736166
0.000706074
0.000677104
0.000649217
0.000622379
0.000596553
0.000571705
0.000547803
0.000524814
0.000502706
0.000481451
0.000461017
0.000441378
0.000422504
0.00040437
0.000386948
0.000370215
0.000354146
0.000338716
0.000323904
0.000309686
0.000296042
0.00028295
0.00027039
0.000258343
0.00024679
0.000235713
0.000225094
0.000214915
0.000205161
0.000195814
0.000186861
0.000178285
0.000170073
0.000162211
0.000154684
0.00014748
0.000140586
0.00013399
0.000127681
0.000121647
0.000115877
0.000110361
0.000105088
0.000100049
9.5234e-05
9.06342e-05
8.62407e-05
8.20451e-05
7.80392e-05
7.42151e-05
7.05653e-05
6.70826e-05
6.37599e-05
6.05904e-05
5.75677e-05
5.46856e-05
5.1938e-05
4.93192e-05
4.68236e-05
4.44458e-05
4.21808e-05
4.00237e-05
3.79696e-05
3.60141e-05
3.41528e-05
3.23815e-05
3.06961e-05
2.90929e-05
2.75681e-05
2.61182e-05
2.47398e-05
2.34296e-05
2.21845e-05
2.10014e-05
1.98776e-05
1.88102e-05
1.77967e-05
1.68345e-05
1.59212e-05
1.50545e-05
1.42322e-05
1.34521e-05
1.27123e-05
1.20108e-05
1.13457e-05
1.07154e-05
1.0118e-05
9.55208e-06
9.01599e-06
8.50829e-06
8.02757e-06
7.57249e-06
7.14177e-06
6.7342e-06
6.34861e-06
5.9839e-06
5.63899e-06
5.31289e-06
5.00464e-06
4.71332e-06
4.43805e-06
4.17802e-06
3.93242e-06
3.70051e-06
3.48157e-06
3.27493e-06
3.07993e-06
2.89596e-06
2.72243e-06
2.5588e-06
2.40453e-06
2.25913e-06
2.12211e-06
1.99303e-06
1.87147e-06
1.75702e-06
1.6493e-06
1.54795e-06
1.45263e-06
1.36303e-06
1.27883e-06
1.19975e-06
1.12555e-06
1.05596e-06
9.9077e-07
9.29762e-07
8.7275e-07
8.19561e-07
7.70044e-07
7.24068e-07
6.81522e-07
6.42318e-07
6.06392e-07
5.73705e-07
5.44249e-07
5.1804e-07
4.95133e-07
4.75612e-07
4.59599e-07
4.47254e-07
4.38774e-07
4.34401e-07
0.000272611
0.000873861
0.00153417
0.00225547
0.00303847
0.0038833
0.00479001
0.00575874
0.00678973
0.0078833
0.00903981
0.0102595
0.0115425
0.0128889
0.0142982
0.0157701
0.0173037
0.018898
0.0205517
0.0222632
0.0240307
0.025852
0.0277247
0.0296461
0.0316135
0.0336236
0.0356732
0.0377588
0.0398765
0.0420226
0.044193
0.0463835
0.0485899
0.0508078
0.0530327
0.0552601
0.0574855
0.0597042
0.0619118
0.0641037
0.0662753
0.0684223
0.0705402
0.0726248
0.0746719
0.0766775
0.0786377
0.0805488
0.0824072
0.0842095
0.0859526
0.0876334
0.0892492
0.0907974
0.0922757
0.0936819
0.0950143
0.096271
0.0974507
0.0985523
0.0995746
0.100517
0.101379
0.10216
0.102861
0.103481
0.10402
0.104479
0.10486
0.105161
0.105386
0.105534
0.105607
0.105607
0.105537
0.105395
0.105184
0.104907
0.104565
0.10416
0.103695
0.103171
0.102592
0.101958
0.101273
0.100538
0.0997562
0.0989296
0.0980605
0.0971512
0.096204
0.0952211
0.0942047
0.0931571
0.0920804
0.0909767
0.0898481
0.0886968
0.0875245
0.0863335
0.0851254
0.0839022
0.0826657
0.0814175
0.0801594
0.0788929
0.0776197
0.0763413
0.075059
0.0737743
0.0724884
0.0712027
0.0699184
0.0686366
0.0673585
0.0660849
0.0648171
0.0635558
0.062302
0.0610565
0.05982
0.0585934
0.0573773
0.0561724
0.0549792
0.0537983
0.0526303
0.0514756
0.0503346
0.0492077
0.0480954
0.0469979
0.0459156
0.0448486
0.0437973
0.0427618
0.0417423
0.040739
0.039752
0.0387814
0.0378272
0.0368896
0.0359685
0.035064
0.0341761
0.0333048
0.0324499
0.0316115
0.0307895
0.0299839
0.0291944
0.028421
0.0276636
0.0269221
0.0261963
0.0254861
0.0247912
0.0241116
0.0234471
0.0227974
0.0221625
0.021542
0.0209359
0.0203439
0.0197658
0.0192014
0.0186505
0.0181129
0.0175883
0.0170766
0.0165775
0.0160909
0.0156164
0.0151539
0.0147031
0.0142639
0.0138359
0.0134191
0.0130131
0.0126178
0.0122329
0.0118582
0.0114935
0.0111387
0.0107934
0.0104575
0.0101308
0.009813
0.00950401
0.00920359
0.00891155
0.0086277
0.00835184
0.00808378
0.00782335
0.00757036
0.00732463
0.00708599
0.00685426
0.00662927
0.00641086
0.00619887
0.00599312
0.00579347
0.00559976
0.00541184
0.00522955
0.00505276
0.00488131
0.00471508
0.00455391
0.00439768
0.00424626
0.00409952
0.00395733
0.00381956
0.00368611
0.00355684
0.00343165
0.00331042
0.00319305
0.00307942
0.00296942
0.00286297
0.00275996
0.00266028
0.00256385
0.00247057
0.00238035
0.00229311
0.00220875
0.00212719
0.00204835
0.00197216
0.00189852
0.00182737
0.00175863
0.00169223
0.0016281
0.00156616
0.00150636
0.00144863
0.00139291
0.00133912
0.00128722
0.00123714
0.00118884
0.00114224
0.0010973
0.00105397
0.00101219
0.000971914
0.000933098
0.000895691
0.000859649
0.000824926
0.000791481
0.000759271
0.000728255
0.000698394
0.00066965
0.000641985
0.000615362
0.000589748
0.000565108
0.000541408
0.000518617
0.000496703
0.000475636
0.000455386
0.000435926
0.000417228
0.000399265
0.00038201
0.000365439
0.000349528
0.000334253
0.00031959
0.000305519
0.000292016
0.000279063
0.000266638
0.000254721
0.000243295
0.000232341
0.000221842
0.000211779
0.000202138
0.000192901
0.000184054
0.000175582
0.00016747
0.000159704
0.000152271
0.000145157
0.000138352
0.000131841
0.000125615
0.00011966
0.000113967
0.000108526
0.000103325
9.83556e-05
9.3608e-05
8.90732e-05
8.47425e-05
8.06074e-05
7.666e-05
7.28923e-05
6.9297e-05
6.58667e-05
6.25945e-05
5.94738e-05
5.64981e-05
5.36612e-05
5.09571e-05
4.83802e-05
4.59249e-05
4.3586e-05
4.13583e-05
3.92371e-05
3.72175e-05
3.52952e-05
3.34657e-05
3.1725e-05
3.00691e-05
2.84941e-05
2.69964e-05
2.55725e-05
2.4219e-05
2.29327e-05
2.17105e-05
2.05494e-05
1.94466e-05
1.83994e-05
1.74052e-05
1.64615e-05
1.55659e-05
1.47162e-05
1.391e-05
1.31455e-05
1.24205e-05
1.17332e-05
1.10817e-05
1.04643e-05
9.8793e-06
9.32517e-06
8.80036e-06
8.30343e-06
7.83298e-06
7.38771e-06
6.96635e-06
6.5677e-06
6.19061e-06
5.834e-06
5.49681e-06
5.17807e-06
4.87682e-06
4.59217e-06
4.32326e-06
4.06927e-06
3.82942e-06
3.60298e-06
3.38925e-06
3.18756e-06
2.99726e-06
2.81776e-06
2.64849e-06
2.4889e-06
2.33847e-06
2.19671e-06
2.06317e-06
1.93739e-06
1.81896e-06
1.70749e-06
1.60261e-06
1.50396e-06
1.41121e-06
1.32405e-06
1.24219e-06
1.16536e-06
1.09331e-06
1.02579e-06
9.6259e-07
9.03517e-07
8.48388e-07
7.97047e-07
7.49354e-07
7.05194e-07
6.64474e-07
6.27125e-07
5.93107e-07
5.62406e-07
5.35043e-07
5.11073e-07
4.90588e-07
4.73726e-07
4.60666e-07
4.51642e-07
4.46953e-07
0.0002678
0.000858192
0.0015057
0.00221269
0.00298085
0.00381118
0.00470429
0.0056607
0.00668086
0.00776521
0.00891414
0.0101279
0.0114067
0.0127503
0.0141586
0.015631
0.0171668
0.0187648
0.0204239
0.0221423
0.0239183
0.0257497
0.0276342
0.0295691
0.0315515
0.0335785
0.0356465
0.0377522
0.0398917
0.0420613
0.0442569
0.0464742
0.0487091
0.050957
0.0532135
0.055474
0.0577339
0.0599886
0.0622335
0.0644639
0.0666752
0.068863
0.0710227
0.07315
0.0752407
0.0772906
0.0792956
0.081252
0.0831562
0.0850045
0.0867937
0.0885208
0.0901827
0.0917769
0.0933009
0.0947524
0.0961296
0.0974305
0.0986538
0.099798
0.100862
0.101846
0.102747
0.103567
0.104305
0.104961
0.105535
0.106028
0.10644
0.106773
0.107026
0.107201
0.1073
0.107324
0.107277
0.107156
0.106964
0.106704
0.106378
0.105987
0.105534
0.105022
0.104451
0.103825
0.103146
0.102415
0.101637
0.100811
0.0999423
0.0990316
0.0980815
0.0970944
0.0960726
0.0950182
0.0939336
0.0928209
0.0916822
0.0905195
0.0893351
0.0881308
0.0869086
0.0856704
0.084418
0.0831533
0.0818778
0.0805934
0.0793015
0.0780038
0.0767018
0.0753967
0.0740901
0.0727832
0.0714773
0.0701736
0.0688732
0.0675772
0.0662866
0.0650023
0.0637254
0.0624566
0.0611967
0.0599467
0.058707
0.0574786
0.0562618
0.0550574
0.0538659
0.0526877
0.0515233
0.0503732
0.0492378
0.0481173
0.0470121
0.0459224
0.0448486
0.0437909
0.0427493
0.0417241
0.0407155
0.0397235
0.0387482
0.0377897
0.0368481
0.0359233
0.0350153
0.0341242
0.0332499
0.0323923
0.0315515
0.0307272
0.0299195
0.0291281
0.0283531
0.0275942
0.0268514
0.0261244
0.0254131
0.0247174
0.0240371
0.023372
0.0227219
0.0220866
0.0214659
0.0208596
0.0202676
0.0196895
0.0191252
0.0185745
0.0180372
0.017513
0.0170017
0.0165031
0.0160169
0.015543
0.0150811
0.014631
0.0141925
0.0137653
0.0133492
0.0129441
0.0125496
0.0121655
0.0117918
0.011428
0.011074
0.0107297
0.0103947
0.010069
0.00975217
0.00944416
0.00914473
0.00885368
0.00857081
0.00829594
0.00802888
0.00776944
0.00751744
0.00727271
0.00703505
0.0068043
0.00658029
0.00636285
0.00615182
0.00594703
0.00574833
0.00555556
0.00536857
0.0051872
0.00501132
0.00484078
0.00467544
0.00451515
0.0043598
0.00420924
0.00406334
0.00392199
0.00378505
0.00365241
0.00352394
0.00339954
0.00327909
0.00316248
0.0030496
0.00294035
0.00283462
0.00273232
0.00263334
0.0025376
0.002445
0.00235545
0.00226886
0.00218514
0.00210421
0.00202599
0.00195039
0.00187735
0.00180678
0.00173861
0.00167276
0.00160917
0.00154778
0.0014885
0.00143128
0.00137605
0.00132275
0.00127133
0.00122172
0.00117387
0.00112772
0.00108321
0.0010403
0.000998941
0.000959073
0.000920651
0.00088363
0.000847964
0.000813608
0.00078052
0.000748658
0.000717982
0.000688452
0.000660029
0.000632678
0.000606361
0.000581044
0.000556692
0.000533274
0.000510756
0.000489108
0.000468299
0.000448301
0.000429085
0.000410624
0.00039289
0.000375859
0.000359506
0.000343805
0.000328734
0.000314269
0.00030039
0.000287074
0.0002743
0.00026205
0.000250303
0.000239041
0.000228246
0.000217901
0.000207987
0.00019849
0.000189392
0.00018068
0.000172338
0.000164351
0.000156707
0.000149392
0.000142392
0.000135696
0.000129291
0.000123167
0.000117311
0.000111714
0.000106364
0.000101251
9.63672e-05
9.17018e-05
8.72462e-05
8.29918e-05
7.89302e-05
7.50535e-05
7.1354e-05
6.78242e-05
6.4457e-05
6.12455e-05
5.81831e-05
5.52635e-05
5.24805e-05
4.98282e-05
4.73011e-05
4.48936e-05
4.26006e-05
4.0417e-05
3.83381e-05
3.63591e-05
3.44757e-05
3.26836e-05
3.09787e-05
2.93571e-05
2.7815e-05
2.63488e-05
2.49551e-05
2.36306e-05
2.2372e-05
2.11763e-05
2.00406e-05
1.89621e-05
1.79381e-05
1.69661e-05
1.60436e-05
1.51683e-05
1.4338e-05
1.35504e-05
1.28035e-05
1.20954e-05
1.14242e-05
1.07881e-05
1.01854e-05
9.61447e-06
9.07371e-06
8.56165e-06
8.07688e-06
7.61802e-06
7.18378e-06
6.77293e-06
6.3843e-06
6.01675e-06
5.66921e-06
5.34067e-06
5.03015e-06
4.73672e-06
4.45951e-06
4.19767e-06
3.9504e-06
3.71694e-06
3.49658e-06
3.28862e-06
3.0924e-06
2.90731e-06
2.73276e-06
2.56818e-06
2.41304e-06
2.26684e-06
2.1291e-06
1.99937e-06
1.87721e-06
1.76222e-06
1.65402e-06
1.55224e-06
1.45655e-06
1.36661e-06
1.28213e-06
1.20284e-06
1.12845e-06
1.05874e-06
9.93482e-07
9.32463e-07
8.75501e-07
8.22432e-07
7.73111e-07
7.27417e-07
6.85252e-07
6.46543e-07
6.11246e-07
5.79346e-07
5.50865e-07
5.2586e-07
5.04433e-07
4.86734e-07
4.72968e-07
4.63405e-07
4.58403e-07
0.000263556
0.000844322
0.00148051
0.00217446
0.00292844
0.00374412
0.00462281
0.00556552
0.00657309
0.00764617
0.0087853
0.00999081
0.0112629
0.0126014
0.0140061
0.0154764
0.0170115
0.0186104
0.0202718
0.021994
0.0237752
0.0256133
0.0275059
0.0294504
0.031444
0.0334835
0.0355657
0.037687
0.0398438
0.042032
0.0442478
0.0464869
0.0487449
0.0510174
0.0533
0.055588
0.0578767
0.0601615
0.0624377
0.0647007
0.0669457
0.0691682
0.0713636
0.0735275
0.0756555
0.0777434
0.0797872
0.0817829
0.0837267
0.085615
0.0874445
0.0892119
0.0909143
0.0925488
0.094113
0.0956045
0.0970212
0.0983613
0.0996232
0.100805
0.101907
0.102927
0.103864
0.104719
0.10549
0.106179
0.106785
0.107308
0.107749
0.108109
0.108389
0.10859
0.108712
0.108758
0.108731
0.108631
0.108458
0.108214
0.107903
0.107526
0.107086
0.106584
0.106022
0.105404
0.104732
0.104007
0.103232
0.102409
0.101541
0.100631
0.0996794
0.09869
0.0976646
0.0966057
0.0955154
0.0943959
0.0932495
0.0920783
0.0908843
0.0896696
0.0884361
0.0871859
0.0859207
0.0846425
0.0833529
0.0820537
0.0807465
0.0794329
0.0781144
0.0767925
0.0754686
0.0741441
0.0728201
0.071498
0.0701789
0.068864
0.0675542
0.0662505
0.064954
0.0636656
0.0623859
0.0611159
0.0598563
0.0586078
0.057371
0.0561466
0.054935
0.0537368
0.0525525
0.0513826
0.0502273
0.0490871
0.0479624
0.0468533
0.0457603
0.0446834
0.0436229
0.0425789
0.0415517
0.0405413
0.0395479
0.0385714
0.0376121
0.0366698
0.0357445
0.0348364
0.0339453
0.0330712
0.032214
0.0313737
0.0305502
0.0297434
0.0289531
0.0281792
0.0274216
0.0266802
0.0259548
0.0252451
0.0245511
0.0238726
0.0232093
0.0225611
0.0219278
0.0213092
0.0207051
0.0201152
0.0195393
0.0189773
0.0184288
0.0178938
0.0173718
0.0168629
0.0163666
0.0158828
0.0154112
0.0149517
0.0145039
0.0140678
0.0136429
0.0132292
0.0128263
0.0124342
0.0120524
0.0116809
0.0113194
0.0109677
0.0106256
0.0102929
0.00996927
0.00965464
0.00934876
0.00905144
0.00876247
0.00848166
0.00820882
0.00794376
0.00768629
0.00743623
0.0071934
0.00695763
0.00672873
0.00650654
0.00629089
0.00608162
0.00587856
0.00568156
0.00549046
0.0053051
0.00512534
0.00495104
0.00478204
0.00461822
0.00445942
0.00430553
0.00415639
0.0040119
0.00387191
0.00373632
0.00360499
0.00347781
0.00335467
0.00323544
0.00312004
0.00300834
0.00290024
0.00279564
0.00269444
0.00259654
0.00250185
0.00241028
0.00232173
0.00223611
0.00215335
0.00207335
0.00199604
0.00192134
0.00184916
0.00177944
0.00171209
0.00164705
0.00158425
0.00152361
0.00146508
0.00140859
0.00135407
0.00130146
0.00125071
0.00120175
0.00115454
0.00110901
0.0010651
0.00102278
0.00098199
0.000942676
0.000904794
0.000868298
0.000833141
0.000799281
0.000766675
0.000735281
0.000705059
0.00067597
0.000647977
0.000621041
0.000595128
0.000570203
0.000546231
0.000523182
0.000501021
0.00047972
0.000459248
0.000439575
0.000420675
0.000402519
0.000385082
0.000368338
0.000352262
0.00033683
0.000322019
0.000307807
0.000294171
0.00028109
0.000268545
0.000256515
0.000244981
0.000233925
0.000223328
0.000213174
0.000203446
0.000194128
0.000185203
0.000176658
0.000168476
0.000160645
0.000153151
0.000145979
0.000139119
0.000132557
0.000126282
0.000120282
0.000114546
0.000109064
0.000103825
9.88201e-05
9.4039e-05
8.94727e-05
8.51124e-05
8.09497e-05
7.69763e-05
7.31843e-05
6.95662e-05
6.61147e-05
6.28227e-05
5.96834e-05
5.66903e-05
5.38372e-05
5.11181e-05
4.85271e-05
4.60588e-05
4.37077e-05
4.14687e-05
3.9337e-05
3.73077e-05
3.53763e-05
3.35385e-05
3.17901e-05
3.0127e-05
2.85454e-05
2.70417e-05
2.56122e-05
2.42535e-05
2.29625e-05
2.1736e-05
2.0571e-05
1.94646e-05
1.84141e-05
1.74169e-05
1.64705e-05
1.55725e-05
1.47205e-05
1.39123e-05
1.3146e-05
1.24194e-05
1.17306e-05
1.10778e-05
1.04593e-05
9.87334e-06
9.31835e-06
8.79279e-06
8.29521e-06
7.82422e-06
7.37849e-06
6.95675e-06
6.5578e-06
6.18047e-06
5.82368e-06
5.48638e-06
5.16757e-06
4.8663e-06
4.58166e-06
4.3128e-06
4.05889e-06
3.81916e-06
3.59286e-06
3.37929e-06
3.17777e-06
2.98768e-06
2.80839e-06
2.63935e-06
2.48e-06
2.32982e-06
2.18832e-06
2.05504e-06
1.92954e-06
1.8114e-06
1.70022e-06
1.59564e-06
1.49729e-06
1.40486e-06
1.31803e-06
1.23652e-06
1.16005e-06
1.08837e-06
1.02125e-06
9.58476e-07
8.99861e-07
8.45233e-07
7.94442e-07
7.4736e-07
7.03884e-07
6.6394e-07
6.27478e-07
5.94484e-07
5.64978e-07
5.39023e-07
5.16726e-07
4.98253e-07
4.83831e-07
4.73766e-07
4.68472e-07
0.000260011
0.000832728
0.00145947
0.00214244
0.0028841
0.00368667
0.004552
0.00548164
0.00647682
0.00753852
0.00866745
0.00986406
0.0111286
0.0124609
0.0138608
0.0153276
0.0168605
0.0184586
0.0201203
0.0218441
0.0236282
0.0254705
0.0273685
0.0293196
0.0313211
0.0333698
0.0354624
0.0375955
0.0397653
0.0419679
0.0441992
0.0464552
0.0487314
0.0510234
0.0533266
0.0556364
0.0579482
0.0602571
0.0625586
0.0648478
0.0671201
0.0693708
0.0715952
0.073789
0.0759476
0.0780667
0.0801423
0.0821703
0.0841469
0.0860683
0.0879311
0.0897321
0.0914681
0.0931362
0.094734
0.0962589
0.0977087
0.0990817
0.100376
0.10159
0.102723
0.103774
0.104741
0.105625
0.106426
0.107142
0.107775
0.108324
0.10879
0.109174
0.109476
0.109699
0.109842
0.109908
0.109898
0.109816
0.109658
0.10943
0.109132
0.108767
0.108338
0.107846
0.107293
0.106683
0.106017
0.105297
0.104526
0.103706
0.102841
0.101931
0.100979
0.0999889
0.0989615
0.0978996
0.0968054
0.0956812
0.0945291
0.0933514
0.0921502
0.0909276
0.0896855
0.088426
0.0871509
0.0858621
0.0845615
0.0832506
0.0819313
0.0806051
0.0792736
0.0779382
0.0766005
0.0752618
0.0739234
0.0725865
0.0712524
0.0699221
0.0685969
0.0672776
0.0659653
0.0646609
0.0633652
0.062079
0.0608032
0.0595384
0.0582853
0.0570445
0.0558167
0.0546022
0.0534016
0.0522154
0.051044
0.0498878
0.0487471
0.0476221
0.0465133
0.0454207
0.0443447
0.0432854
0.042243
0.0412175
0.0402091
0.039218
0.038244
0.0372873
0.0363479
0.0354257
0.0345208
0.0336331
0.0327626
0.0319091
0.0310726
0.030253
0.0294501
0.0286639
0.0278942
0.0271408
0.0264037
0.0256825
0.0249773
0.0242877
0.0236136
0.0229547
0.022311
0.0216822
0.021068
0.0204683
0.0198829
0.0193115
0.0187539
0.0182098
0.0176792
0.0171616
0.016657
0.016165
0.0156854
0.0152181
0.0147627
0.014319
0.0138869
0.0134661
0.0130564
0.0126574
0.0122691
0.0118912
0.0115235
0.0111657
0.0108176
0.0104791
0.0101499
0.00982974
0.00951852
0.00921599
0.00892196
0.00863622
0.00835859
0.00808886
0.00782685
0.00757238
0.00732526
0.00708531
0.00685236
0.00662622
0.00640674
0.00619374
0.00598707
0.00578655
0.00559203
0.00540336
0.00522038
0.00504295
0.00487092
0.00470414
0.00454249
0.00438582
0.00423399
0.00408689
0.00394437
0.00380632
0.0036726
0.00354312
0.00341773
0.00329634
0.00317883
0.00306509
0.00295502
0.0028485
0.00274545
0.00264576
0.00254933
0.00245607
0.00236589
0.0022787
0.00219441
0.00211293
0.00203419
0.00195811
0.00188459
0.00181357
0.00174497
0.00167872
0.00161475
0.00155298
0.00149336
0.00143581
0.00138027
0.00132667
0.00127497
0.00122509
0.00117699
0.0011306
0.00108587
0.00104274
0.00100118
0.00096112
0.000922519
0.00088533
0.000849504
0.000814999
0.000781771
0.000749778
0.000718978
0.000689332
0.000660801
0.000633349
0.000606937
0.000581532
0.000557099
0.000533604
0.000511015
0.000489301
0.000468432
0.000448378
0.00042911
0.000410601
0.000392824
0.000375753
0.000359363
0.000343629
0.000328528
0.000314036
0.000300132
0.000286794
0.000274001
0.000261734
0.000249972
0.000238697
0.000227891
0.000217535
0.000207614
0.00019811
0.000189007
0.000180291
0.000171946
0.000163958
0.000156313
0.000148998
0.000142
0.000135306
0.000128904
0.000122783
0.000116931
0.000111338
0.000105993
0.000100886
9.60077e-05
9.13484e-05
8.68992e-05
8.26514e-05
7.85967e-05
7.4727e-05
7.10347e-05
6.75122e-05
6.41524e-05
6.09484e-05
5.78936e-05
5.49815e-05
5.22061e-05
4.95614e-05
4.70418e-05
4.46418e-05
4.23563e-05
4.018e-05
3.81084e-05
3.61366e-05
3.42603e-05
3.24752e-05
3.07772e-05
2.91624e-05
2.76269e-05