/*--------------------------------*- C++ -*----------------------------------*\
  =========                 |
  \\      /  F ield         | OpenFOAM: The Open Source CFD Toolbox
   \\    /   O peration     | Website:  https://openfoam.org
    \\  /    A nd           | Version:  dev
     \\/     M anipulation  |
\*---------------------------------------------------------------------------*/
FoamFile
{
    format      ascii;
    class       volScalarField;
    location    "0.24";
    object      beta;
}
// * * * * * * * * * * * * * * * * * * * * * * * * * * * * * * * * * * * * * //

dimensions      [0 0 0 0 0 0 0];

internalField   uniform 0;

boundaryField
{
    frontAndBack
    {
        type            empty;
    }
    inlet
    {
        type            calculated;
        value           uniform 0;
    }
    outlet
    {
        type            calculated;
        value           uniform 0;
    }
    substrate
    {
        type            calculated;
        value           nonuniform List<scalar> 
400
(
0.00276608
0.00290566
0.00300806
0.00310166
0.0031906
0.00327526
0.00335662
0.00343558
0.00351275
0.0035886
0.00366346
0.00373759
0.0038112
0.00388443
0.0039574
0.0040302
0.00410289
0.00417552
0.0042481
0.00432066
0.0043932
0.00446573
0.00453822
0.00461067
0.00468307
0.00475538
0.0048276
0.0048997
0.00497166
0.00504345
0.00511504
0.00518642
0.00525755
0.00532842
0.00539899
0.00546925
0.00553917
0.00560873
0.0056779
0.00574666
0.005815
0.00588289
0.00595031
0.00601724
0.00608367
0.00614957
0.00621494
0.00627975
0.00634398
0.00640763
0.00647068
0.00653312
0.00659494
0.00665611
0.00671665
0.00677652
0.00683573
0.00689427
0.00695212
0.00700928
0.00706575
0.00712152
0.00717659
0.00723094
0.00728458
0.0073375
0.0073897
0.00744119
0.00749195
0.00754198
0.0075913
0.00763989
0.00768776
0.0077349
0.00778133
0.00782704
0.00787203
0.00791631
0.00795988
0.00800275
0.00804492
0.00808638
0.00812716
0.00816725
0.00820665
0.00824538
0.00828344
0.00832083
0.00835756
0.00839363
0.00842906
0.00846385
0.00849801
0.00853153
0.00856444
0.00859674
0.00862843
0.00865952
0.00869002
0.00871994
0.00874928
0.00877805
0.00880626
0.00883392
0.00886104
0.00888761
0.00891366
0.00893919
0.0089642
0.0089887
0.0090127
0.00903622
0.00905925
0.0090818
0.00910389
0.00912551
0.00914669
0.00916741
0.0091877
0.00920756
0.00922699
0.00924601
0.00926461
0.00928282
0.00930063
0.00931805
0.00933509
0.00935176
0.00936806
0.00938399
0.00939958
0.00941481
0.00942971
0.00944427
0.0094585
0.00947241
0.009486
0.00949928
0.00951226
0.00952494
0.00953732
0.00954942
0.00956124
0.00957279
0.00958406
0.00959507
0.00960581
0.00961631
0.00962655
0.00963655
0.00964631
0.00965584
0.00966514
0.00967421
0.00968306
0.0096917
0.00970013
0.00970835
0.00971636
0.00972418
0.00973181
0.00973925
0.0097465
0.00975357
0.00976046
0.00976718
0.00977373
0.00978011
0.00978633
0.0097924
0.0097983
0.00980406
0.00980967
0.00981513
0.00982045
0.00982563
0.00983067
0.00983559
0.00984037
0.00984503
0.00984957
0.00985398
0.00985828
0.00986246
0.00986653
0.00987049
0.00987434
0.00987809
0.00988174
0.00988529
0.00988874
0.00989209
0.00989536
0.00989853
0.00990162
0.00990462
0.00990753
0.00991037
0.00991312
0.0099158
0.0099184
0.00992093
0.00992339
0.00992577
0.00992809
0.00993034
0.00993253
0.00993465
0.00993671
0.00993872
0.00994066
0.00994255
0.00994438
0.00994616
0.00994788
0.00994956
0.00995118
0.00995276
0.00995429
0.00995577
0.00995721
0.00995861
0.00995996
0.00996127
0.00996255
0.00996378
0.00996498
0.00996614
0.00996726
0.00996835
0.00996941
0.00997043
0.00997142
0.00997238
0.00997331
0.00997422
0.00997509
0.00997593
0.00997675
0.00997755
0.00997831
0.00997906
0.00997978
0.00998047
0.00998115
0.0099818
0.00998243
0.00998304
0.00998363
0.00998421
0.00998476
0.00998529
0.00998581
0.00998631
0.0099868
0.00998726
0.00998772
0.00998815
0.00998858
0.00998899
0.00998938
0.00998976
0.00999013
0.00999049
0.00999083
0.00999116
0.00999149
0.0099918
0.0099921
0.00999239
0.00999267
0.00999294
0.0099932
0.00999345
0.00999369
0.00999393
0.00999415
0.00999437
0.00999458
0.00999478
0.00999498
0.00999517
0.00999535
0.00999553
0.0099957
0.00999586
0.00999602
0.00999617
0.00999632
0.00999646
0.0099966
0.00999673
0.00999685
0.00999698
0.00999709
0.00999721
0.00999732
0.00999742
0.00999752
0.00999762
0.00999771
0.0099978
0.00999789
0.00999797
0.00999805
0.00999813
0.00999821
0.00999828
0.00999835
0.00999841
0.00999848
0.00999854
0.0099986
0.00999866
0.00999871
0.00999876
0.00999881
0.00999886
0.00999891
0.00999895
0.009999
0.00999904
0.00999908
0.00999912
0.00999915
0.00999919
0.00999922
0.00999926
0.00999929
0.00999932
0.00999935
0.00999937
0.0099994
0.00999943
0.00999945
0.00999947
0.0099995
0.00999952
0.00999954
0.00999956
0.00999958
0.0099996
0.00999961
0.00999963
0.00999965
0.00999966
0.00999968
0.00999969
0.00999971
0.00999972
0.00999973
0.00999974
0.00999975
0.00999977
0.00999978
0.00999979
0.0099998
0.0099998
0.00999981
0.00999982
0.00999983
0.00999984
0.00999985
0.00999985
0.00999986
0.00999987
0.00999987
0.00999988
0.00999988
0.00999989
0.00999989
0.0099999
0.0099999
0.00999991
0.00999991
0.00999992
0.00999992
0.00999992
0.00999993
0.00999993
0.00999993
0.00999994
0.00999994
0.00999994
0.00999995
0.00999995
0.00999995
0.00999995
0.00999995
0.00999996
0.00999996
0.00999996
0.00999996
0.00999996
0.00999996
0.00999996
0.00999997
0.00999997
0.00999997
0.00999997
)
;
    }
    Wall
    {
        type            calculated;
        value           nonuniform List<scalar> 
400
(
0.00276608
0.00290566
0.00300805
0.00310165
0.0031906
0.00327527
0.00335663
0.00343559
0.00351277
0.00358862
0.00366349
0.00373762
0.00381122
0.00388445
0.00395743
0.00403022
0.00410291
0.00417554
0.00424812
0.00432068
0.00439322
0.00446574
0.00453823
0.00461068
0.00468307
0.00475539
0.00482761
0.00489971
0.00497166
0.00504345
0.00511504
0.00518642
0.00525755
0.00532841
0.00539899
0.00546924
0.00553916
0.00560872
0.00567789
0.00574665
0.00581499
0.00588288
0.0059503
0.00601723
0.00608366
0.00614956
0.00621492
0.00627973
0.00634397
0.00640762
0.00647067
0.00653311
0.00659492
0.0066561
0.00671663
0.0067765
0.00683571
0.00689425
0.0069521
0.00700926
0.00706573
0.0071215
0.00717656
0.00723092
0.00728456
0.00733748
0.00738968
0.00744117
0.00749193
0.00754196
0.00759128
0.00763987
0.00768773
0.00773488
0.00778131
0.00782702
0.00787201
0.00791629
0.00795986
0.00800273
0.0080449
0.00808636
0.00812714
0.00816723
0.00820663
0.00824536
0.00828342
0.00832081
0.00835754
0.00839362
0.00842904
0.00846383
0.00849799
0.00853152
0.00856443
0.00859672
0.00862841
0.0086595
0.00869
0.00871992
0.00874926
0.00877804
0.00880625
0.00883391
0.00886102
0.0088876
0.00891365
0.00893917
0.00896418
0.00898869
0.00901269
0.00903621
0.00905924
0.00908179
0.00910388
0.0091255
0.00914667
0.0091674
0.00918769
0.00920754
0.00922698
0.00924599
0.0092646
0.00928281
0.00930062
0.00931804
0.00933508
0.00935175
0.00936805
0.00938398
0.00939957
0.0094148
0.0094297
0.00944426
0.00945849
0.0094724
0.00948599
0.00949927
0.00951225
0.00952493
0.00953732
0.00954942
0.00956124
0.00957278
0.00958405
0.00959506
0.00960581
0.0096163
0.00962654
0.00963654
0.00964631
0.00965583
0.00966513
0.0096742
0.00968306
0.00969169
0.00970012
0.00970834
0.00971636
0.00972418
0.0097318
0.00973924
0.00974649
0.00975356
0.00976046
0.00976717
0.00977372
0.00978011
0.00978633
0.00979239
0.0097983
0.00980405
0.00980966
0.00981512
0.00982044
0.00982562
0.00983067
0.00983558
0.00984037
0.00984503
0.00984956
0.00985398
0.00985827
0.00986246
0.00986653
0.00987049
0.00987434
0.00987809
0.00988174
0.00988528
0.00988874
0.00989209
0.00989536
0.00989853
0.00990161
0.00990461
0.00990753
0.00991036
0.00991312
0.0099158
0.0099184
0.00992093
0.00992338
0.00992577
0.00992809
0.00993034
0.00993253
0.00993465
0.00993671
0.00993871
0.00994066
0.00994255
0.00994438
0.00994616
0.00994788
0.00994956
0.00995118
0.00995276
0.00995429
0.00995577
0.00995721
0.00995861
0.00995996
0.00996127
0.00996255
0.00996378
0.00996498
0.00996614
0.00996726
0.00996835
0.00996941
0.00997043
0.00997142
0.00997238
0.00997331
0.00997421
0.00997509
0.00997593
0.00997675
0.00997755
0.00997831
0.00997906
0.00997978
0.00998047
0.00998115
0.0099818
0.00998243
0.00998304
0.00998363
0.0099842
0.00998476
0.00998529
0.00998581
0.00998631
0.0099868
0.00998726
0.00998772
0.00998815
0.00998858
0.00998898
0.00998938
0.00998976
0.00999013
0.00999049
0.00999083
0.00999116
0.00999149
0.0099918
0.0099921
0.00999239
0.00999267
0.00999294
0.0099932
0.00999345
0.00999369
0.00999392
0.00999415
0.00999437
0.00999458
0.00999478
0.00999498
0.00999517
0.00999535
0.00999553
0.0099957
0.00999586
0.00999602
0.00999617
0.00999632
0.00999646
0.0099966
0.00999673
0.00999685
0.00999698
0.00999709
0.00999721
0.00999731
0.00999742
0.00999752
0.00999762
0.00999771
0.0099978
0.00999789
0.00999797
0.00999805
0.00999813
0.00999821
0.00999828
0.00999835
0.00999841
0.00999848
0.00999854
0.0099986
0.00999866
0.00999871
0.00999876
0.00999881
0.00999886
0.00999891
0.00999895
0.009999
0.00999904
0.00999908
0.00999912
0.00999915
0.00999919
0.00999922
0.00999926
0.00999929
0.00999932
0.00999935
0.00999937
0.0099994
0.00999943
0.00999945
0.00999947
0.0099995
0.00999952
0.00999954
0.00999956
0.00999958
0.0099996
0.00999961
0.00999963
0.00999965
0.00999966
0.00999968
0.00999969
0.00999971
0.00999972
0.00999973
0.00999974
0.00999975
0.00999977
0.00999978
0.00999979
0.0099998
0.0099998
0.00999981
0.00999982
0.00999983
0.00999984
0.00999985
0.00999985
0.00999986
0.00999987
0.00999987
0.00999988
0.00999988
0.00999989
0.00999989
0.0099999
0.0099999
0.00999991
0.00999991
0.00999992
0.00999992
0.00999992
0.00999993
0.00999993
0.00999993
0.00999994
0.00999994
0.00999994
0.00999995
0.00999995
0.00999995
0.00999995
0.00999995
0.00999996
0.00999996
0.00999996
0.00999996
0.00999996
0.00999996
0.00999996
0.00999997
0.00999997
0.00999997
0.00999997
)
;
    }
}


// ************************************************************************* //
