/*--------------------------------*- C++ -*----------------------------------*\
  =========                 |
  \\      /  F ield         | OpenFOAM: The Open Source CFD Toolbox
   \\    /   O peration     | Website:  https://openfoam.org
    \\  /    A nd           | Version:  dev
     \\/     M anipulation  |
\*---------------------------------------------------------------------------*/
FoamFile
{
    format      ascii;
    class       volScalarField;
    location    "0.24";
    object      Exp1;
}
// * * * * * * * * * * * * * * * * * * * * * * * * * * * * * * * * * * * * * //

dimensions      [0 0 0 0 0 0 0];

internalField   uniform 0;

boundaryField
{
    frontAndBack
    {
        type            empty;
    }
    inlet
    {
        type            calculated;
        value           uniform 0;
    }
    outlet
    {
        type            calculated;
        value           uniform 0;
    }
    substrate
    {
        type            calculated;
        value           nonuniform List<scalar> 
400
(
8.49284e-07
2.70449e-06
4.74394e-06
6.9578e-06
9.34609e-06
1.19155e-05
1.46722e-05
1.76228e-05
2.07744e-05
2.41348e-05
2.77122e-05
3.15149e-05
3.55514e-05
3.98303e-05
4.43599e-05
4.91486e-05
5.42045e-05
5.95356e-05
6.51494e-05
7.10533e-05
7.72545e-05
8.37599e-05
9.05759e-05
9.77087e-05
0.000105164
0.000112948
0.000121066
0.000129521
0.00013832
0.000147466
0.000156963
0.000166814
0.000177022
0.00018759
0.000198521
0.000209815
0.000221474
0.000233498
0.000245889
0.000258646
0.000271769
0.000285255
0.000299105
0.000313315
0.000327882
0.000342805
0.000358079
0.0003737
0.000389662
0.000405962
0.000422593
0.000439549
0.000456822
0.000474406
0.000492293
0.000510473
0.000528939
0.000547681
0.000566689
0.000585951
0.000605458
0.000625198
0.00064516
0.000665329
0.000685695
0.000706243
0.000726961
0.000747833
0.000768847
0.000789986
0.000811236
0.000832581
0.000854006
0.000875494
0.00089703
0.000918597
0.000940177
0.000961755
0.000983313
0.00100483
0.0010263
0.00104769
0.001069
0.00109019
0.00111126
0.00113219
0.00115296
0.00117355
0.00119394
0.00121412
0.00123408
0.00125378
0.00127322
0.00129238
0.00131124
0.00132979
0.00134801
0.00136589
0.0013834
0.00140054
0.00141729
0.00143364
0.00144956
0.00146506
0.00148011
0.00149471
0.00150884
0.00152249
0.00153565
0.00154831
0.00156045
0.00157208
0.00158318
0.00159375
0.00160376
0.00161323
0.00162215
0.00163049
0.00163828
0.00164549
0.00165212
0.00165818
0.00166365
0.00166854
0.00167285
0.00167657
0.00167971
0.00168226
0.00168423
0.00168561
0.00168642
0.00168665
0.00168631
0.00168541
0.00168394
0.0016819
0.00167931
0.00167618
0.0016725
0.00166829
0.00166356
0.00165831
0.00165255
0.00164628
0.00163953
0.0016323
0.00162459
0.00161643
0.00160781
0.00159876
0.00158927
0.00157937
0.00156907
0.00155837
0.00154729
0.00153585
0.00152404
0.0015119
0.00149942
0.00148662
0.00147352
0.00146013
0.00144646
0.00143252
0.00141833
0.00140389
0.00138923
0.00137436
0.00135929
0.00134402
0.00132858
0.00131298
0.00129722
0.00128133
0.00126531
0.00124917
0.00123294
0.00121661
0.0012002
0.00118373
0.00116719
0.00115062
0.001134
0.00111736
0.00110071
0.00108405
0.0010674
0.00105077
0.00103415
0.00101757
0.00100103
0.000984542
0.000968111
0.000951746
0.000935455
0.000919244
0.000903122
0.000887095
0.000871169
0.000855351
0.000839647
0.000824062
0.000808602
0.000793272
0.000778078
0.000763023
0.000748112
0.00073335
0.00071874
0.000704286
0.000689991
0.000675859
0.000661893
0.000648095
0.000634468
0.000621014
0.000607736
0.000594634
0.000581712
0.00056897
0.000556409
0.000544031
0.000531837
0.000519827
0.000508003
0.000496364
0.00048491
0.000473643
0.000462561
0.000451665
0.000440954
0.000430428
0.000420087
0.000409929
0.000399954
0.000390162
0.00038055
0.000371118
0.000361865
0.000352789
0.00034389
0.000335165
0.000326613
0.000318232
0.000310022
0.000301979
0.000294103
0.000286392
0.000278843
0.000271454
0.000264225
0.000257152
0.000250235
0.000243469
0.000236855
0.000230389
0.000224069
0.000217893
0.000211859
0.000205965
0.000200209
0.000194588
0.0001891
0.000183743
0.000178514
0.000173413
0.000168435
0.000163579
0.000158844
0.000154226
0.000149723
0.000145334
0.000141056
0.000136887
0.000132824
0.000128866
0.000125011
0.000121257
0.0001176
0.000114041
0.000110575
0.000107202
0.000103919
0.000100725
9.76172e-05
9.4594e-05
9.16534e-05
8.87937e-05
8.6013e-05
8.33096e-05
8.06815e-05
7.81271e-05
7.56447e-05
7.32325e-05
7.08889e-05
6.86122e-05
6.64009e-05
6.42533e-05
6.21678e-05
6.0143e-05
5.81774e-05
5.62694e-05
5.44176e-05
5.26206e-05
5.0877e-05
4.91854e-05
4.75446e-05
4.5953e-05
4.44096e-05
4.2913e-05
4.1462e-05
4.00553e-05
3.86918e-05
3.73704e-05
3.60898e-05
3.48491e-05
3.3647e-05
3.24826e-05
3.13548e-05
3.02626e-05
2.9205e-05
2.8181e-05
2.71897e-05
2.62301e-05
2.53014e-05
2.44027e-05
2.35331e-05
2.26918e-05
2.1878e-05
2.10908e-05
2.03295e-05
1.95933e-05
1.88815e-05
1.81934e-05
1.75283e-05
1.68854e-05
1.62641e-05
1.56637e-05
1.50837e-05
1.45234e-05
1.39822e-05
1.34595e-05
1.29548e-05
1.24675e-05
1.1997e-05
1.15428e-05
1.11045e-05
1.06814e-05
1.02732e-05
9.87943e-06
9.49953e-06
9.1331e-06
8.77971e-06
8.43894e-06
8.11038e-06
7.79364e-06
7.48834e-06
7.1941e-06
6.91056e-06
6.63738e-06
6.37421e-06
6.12073e-06
5.87662e-06
5.64156e-06
5.41527e-06
5.19745e-06
4.98783e-06
4.78614e-06
4.59212e-06
4.40552e-06
4.2261e-06
4.05363e-06
3.8879e-06
3.7287e-06
3.57582e-06
3.42909e-06
3.28832e-06
3.15335e-06
3.02403e-06
2.90023e-06
2.78181e-06
2.66867e-06
2.56071e-06
2.45787e-06
2.36008e-06
2.26731e-06
2.17955e-06
2.09682e-06
2.01916e-06
1.94665e-06
1.87939e-06
1.81754e-06
1.76128e-06
1.71085e-06
1.66652e-06
1.62862e-06
1.59751e-06
1.57359e-06
1.55727e-06
1.54895e-06
)
;
    }
    Wall
    {
        type            calculated;
        value           nonuniform List<scalar> 
400
(
8.49251e-07
2.70441e-06
4.74384e-06
6.95767e-06
9.34589e-06
1.19152e-05
1.46718e-05
1.76222e-05
2.07736e-05
2.41338e-05
2.7711e-05
3.15134e-05
3.55496e-05
3.98282e-05
4.43575e-05
4.91458e-05
5.42013e-05
5.95319e-05
6.51453e-05
7.10487e-05
7.72495e-05
8.37543e-05
9.05697e-05
9.7702e-05
0.000105157
0.00011294
0.000121057
0.000129512
0.00013831
0.000147456
0.000156952
0.000166802
0.00017701
0.000187577
0.000198507
0.0002098
0.000221458
0.000233482
0.000245872
0.000258628
0.000271749
0.000285235
0.000299083
0.000313292
0.000327859
0.000342781
0.000358054
0.000373673
0.000389635
0.000405933
0.000422563
0.000439517
0.00045679
0.000474373
0.000492258
0.000510437
0.000528902
0.000547643
0.000566649
0.00058591
0.000605416
0.000625155
0.000645115
0.000665283
0.000685647
0.000706195
0.000726911
0.000747782
0.000768794
0.000789932
0.00081118
0.000832524
0.000853948
0.000875435
0.00089697
0.000918535
0.000940114
0.000961691
0.000983247
0.00100477
0.00102623
0.00104762
0.00106892
0.00109012
0.00111119
0.00113212
0.00115288
0.00117347
0.00119387
0.00121405
0.001234
0.0012537
0.00127314
0.0012923
0.00131116
0.00132971
0.00134793
0.0013658
0.00138332
0.00140045
0.0014172
0.00143355
0.00144948
0.00146497
0.00148002
0.00149462
0.00150875
0.0015224
0.00153556
0.00154822
0.00156036
0.00157199
0.00158309
0.00159365
0.00160367
0.00161314
0.00162205
0.0016304
0.00163819
0.0016454
0.00165203
0.00165809
0.00166356
0.00166845
0.00167276
0.00167648
0.00167962
0.00168217
0.00168414
0.00168553
0.00168634
0.00168657
0.00168623
0.00168533
0.00168385
0.00168182
0.00167923
0.0016761
0.00167243
0.00166822
0.00166348
0.00165823
0.00165247
0.00164621
0.00163946
0.00163223
0.00162452
0.00161636
0.00160774
0.00159869
0.00158921
0.00157931
0.00156901
0.00155831
0.00154723
0.00153579
0.00152398
0.00151184
0.00149936
0.00148657
0.00147347
0.00146008
0.00144641
0.00143247
0.00141828
0.00140385
0.00138919
0.00137432
0.00135924
0.00134398
0.00132854
0.00131294
0.00129718
0.00128129
0.00126527
0.00124914
0.0012329
0.00121658
0.00120017
0.0011837
0.00116716
0.00115059
0.00113398
0.00111734
0.00110069
0.00108403
0.00106738
0.00105074
0.00103413
0.00101755
0.00100101
0.000984523
0.000968093
0.000951729
0.000935438
0.000919228
0.000903107
0.00088708
0.000871155
0.000855338
0.000839634
0.00082405
0.000808591
0.000793262
0.000778068
0.000763014
0.000748104
0.000733342
0.000718732
0.000704279
0.000689985
0.000675854
0.000661888
0.00064809
0.000634464
0.00062101
0.000607732
0.000594631
0.000581709
0.000568967
0.000556407
0.000544029
0.000531835
0.000519826
0.000508002
0.000496363
0.00048491
0.000473642
0.000462561
0.000451665
0.000440955
0.000430429
0.000420088
0.00040993
0.000399956
0.000390163
0.000380551
0.00037112
0.000361867
0.000352791
0.000343892
0.000335167
0.000326615
0.000318234
0.000310024
0.000301982
0.000294106
0.000286394
0.000278845
0.000271457
0.000264228
0.000257155
0.000250237
0.000243472
0.000236858
0.000230391
0.000224072
0.000217896
0.000211862
0.000205968
0.000200212
0.000194591
0.000189103
0.000183746
0.000178517
0.000173416
0.000168438
0.000163582
0.000158847
0.000154229
0.000149726
0.000145337
0.000141059
0.000136889
0.000132827
0.000128869
0.000125014
0.000121259
0.000117603
0.000114043
0.000110578
0.000107205
0.000103922
0.000100727
9.76196e-05
9.45963e-05
9.16558e-05
8.8796e-05
8.60153e-05
8.33118e-05
8.06837e-05
7.81293e-05
7.56468e-05
7.32346e-05
7.0891e-05
6.86143e-05
6.64029e-05
6.42552e-05
6.21698e-05
6.01449e-05
5.81792e-05
5.62712e-05
5.44194e-05
5.26224e-05
5.08787e-05
4.91871e-05
4.75462e-05
4.59546e-05
4.44112e-05
4.29145e-05
4.14634e-05
4.00568e-05
3.86933e-05
3.73718e-05
3.60912e-05
3.48504e-05
3.36483e-05
3.24839e-05
3.13561e-05
3.02638e-05
2.92062e-05
2.81821e-05
2.71908e-05
2.62312e-05
2.53025e-05
2.44038e-05
2.35342e-05
2.26928e-05
2.1879e-05
2.10918e-05
2.03304e-05
1.95942e-05
1.88824e-05
1.81943e-05
1.75291e-05
1.68862e-05
1.62649e-05
1.56645e-05
1.50845e-05
1.45241e-05
1.39829e-05
1.34602e-05
1.29555e-05
1.24681e-05
1.19976e-05
1.15434e-05
1.1105e-05
1.0682e-05
1.02738e-05
9.87997e-06
9.50005e-06
9.13361e-06
8.7802e-06
8.43941e-06
8.11084e-06
7.79408e-06
7.48877e-06
7.19451e-06
6.91096e-06
6.63777e-06
6.37459e-06
6.1211e-06
5.87697e-06
5.64191e-06
5.41561e-06
5.19778e-06
4.98815e-06
4.78645e-06
4.59241e-06
4.4058e-06
4.22637e-06
4.0539e-06
3.88816e-06
3.72895e-06
3.57606e-06
3.42932e-06
3.28854e-06
3.15357e-06
3.02424e-06
2.90043e-06
2.782e-06
2.66885e-06
2.56089e-06
2.45804e-06
2.36025e-06
2.26747e-06
2.17971e-06
2.09698e-06
2.01931e-06
1.9468e-06
1.87954e-06
1.81768e-06
1.76142e-06
1.71099e-06
1.66666e-06
1.62875e-06
1.59764e-06
1.57371e-06
1.55737e-06
1.54904e-06
)
;
    }
}


// ************************************************************************* //
