/*--------------------------------*- C++ -*----------------------------------*\
  =========                 |
  \\      /  F ield         | OpenFOAM: The Open Source CFD Toolbox
   \\    /   O peration     | Website:  https://openfoam.org
    \\  /    A nd           | Version:  dev
     \\/     M anipulation  |
\*---------------------------------------------------------------------------*/
FoamFile
{
    format      ascii;
    class       volScalarField;
    location    "0.24";
    object      growth;
}
// * * * * * * * * * * * * * * * * * * * * * * * * * * * * * * * * * * * * * //

dimensions      [0 0 0 0 0 0 0];

internalField   uniform 0;

boundaryField
{
    frontAndBack
    {
        type            empty;
    }
    inlet
    {
        type            calculated;
        value           uniform 0;
    }
    outlet
    {
        type            calculated;
        value           uniform 0;
    }
    substrate
    {
        type            calculated;
        value           nonuniform List<scalar> 
400
(
0.723392
0.709434
0.699194
0.689834
0.68094
0.672474
0.664338
0.656442
0.648725
0.64114
0.633654
0.626241
0.61888
0.611557
0.60426
0.59698
0.589711
0.582448
0.57519
0.567934
0.56068
0.553427
0.546178
0.538933
0.531693
0.524462
0.51724
0.51003
0.502834
0.495655
0.488496
0.481358
0.474245
0.467158
0.460101
0.453075
0.446083
0.439127
0.43221
0.425334
0.4185
0.411711
0.404969
0.398276
0.391633
0.385043
0.378506
0.372025
0.365602
0.359237
0.352932
0.346688
0.340506
0.334389
0.328335
0.322348
0.316427
0.310573
0.304788
0.299072
0.293425
0.287848
0.282341
0.276906
0.271542
0.26625
0.26103
0.255881
0.250805
0.245802
0.24087
0.236011
0.231224
0.22651
0.221867
0.217296
0.212797
0.208369
0.204012
0.199725
0.195508
0.191362
0.187284
0.183275
0.179335
0.175462
0.171656
0.167917
0.164244
0.160637
0.157094
0.153615
0.150199
0.146847
0.143556
0.140326
0.137157
0.134048
0.130998
0.128006
0.125072
0.122195
0.119374
0.116608
0.113896
0.111239
0.108634
0.106081
0.10358
0.10113
0.0987295
0.0963782
0.0940752
0.0918197
0.0896112
0.0874487
0.0853315
0.0832589
0.0812301
0.0792444
0.0773011
0.0753995
0.0735388
0.0717182
0.0699372
0.068195
0.0664909
0.0648243
0.0631944
0.0616006
0.0600422
0.0585187
0.0570292
0.0555732
0.0541501
0.0527593
0.0514001
0.0500719
0.0487741
0.0475062
0.0462675
0.0450576
0.0438757
0.0427215
0.0415942
0.0404935
0.0394187
0.0383693
0.0373449
0.0363449
0.0353688
0.0344161
0.0334863
0.0325791
0.0316938
0.0308301
0.0299875
0.0291655
0.0283637
0.0275817
0.0268191
0.0260754
0.0253502
0.0246432
0.0239539
0.023282
0.0226271
0.0219887
0.0213666
0.0207604
0.0201697
0.0195942
0.0190335
0.0184873
0.0179553
0.0174371
0.0169325
0.0164411
0.0159627
0.0154968
0.0150433
0.0146019
0.0141722
0.013754
0.013347
0.0129509
0.0125656
0.0121907
0.011826
0.0114712
0.0111262
0.0107906
0.0104642
0.0101469
0.00983831
0.00953833
0.00924672
0.00896327
0.00868777
0.00842003
0.00815985
0.00790704
0.00766141
0.00742278
0.00719098
0.00696583
0.00674715
0.00653478
0.00632857
0.00612834
0.00593394
0.00574522
0.00556203
0.00538423
0.00521166
0.0050442
0.00488171
0.00472405
0.00457109
0.00442271
0.00427878
0.00413919
0.00400381
0.00387252
0.00374523
0.00362181
0.00350216
0.00338617
0.00327374
0.00316478
0.00305919
0.00295686
0.00285771
0.00276166
0.0026686
0.00257846
0.00249115
0.00240659
0.0023247
0.0022454
0.00216863
0.0020943
0.00202234
0.00195269
0.00188527
0.00182003
0.00175689
0.00169579
0.00163668
0.00157949
0.00152417
0.00147066
0.0014189
0.00136884
0.00132044
0.00127364
0.00122838
0.00118464
0.00114235
0.00110147
0.00106196
0.00102378
0.000986888
0.000951238
0.000916795
0.000883521
0.000851379
0.000820334
0.000790349
0.000761393
0.000733432
0.000706434
0.000680369
0.000655207
0.000630918
0.000607474
0.000584849
0.000563015
0.000541947
0.000521619
0.000502008
0.00048309
0.000464842
0.000447242
0.000430269
0.000413901
0.000398119
0.000382903
0.000368234
0.000354094
0.000340464
0.000327329
0.00031467
0.000302473
0.00029072
0.000279398
0.000268491
0.000257984
0.000247866
0.000238121
0.000228737
0.000219701
0.000211002
0.000202627
0.000194566
0.000186807
0.00017934
0.000172155
0.00016524
0.000158588
0.000152189
0.000146033
0.000140112
0.000134417
0.000128941
0.000123675
0.000118613
0.000113746
0.000109067
0.000104571
0.000100249
9.60958e-05
9.21053e-05
8.82713e-05
8.45881e-05
8.10501e-05
7.76519e-05
7.43883e-05
7.12544e-05
6.82452e-05
6.53562e-05
6.25828e-05
5.99207e-05
5.73656e-05
5.49136e-05
5.25607e-05
5.03032e-05
4.81374e-05
4.60598e-05
4.40671e-05
4.21559e-05
4.03232e-05
3.8566e-05
3.68812e-05
3.52661e-05
3.37179e-05
3.22342e-05
3.08122e-05
2.94497e-05
2.81443e-05
2.68937e-05
2.56958e-05
2.45485e-05
2.34497e-05
2.23976e-05
2.13902e-05
2.04259e-05
1.95028e-05
1.86193e-05
1.77738e-05
1.69648e-05
1.61908e-05
1.54504e-05
1.47423e-05
1.4065e-05
1.34175e-05
1.27984e-05
1.22066e-05
1.16411e-05
1.11007e-05
1.05845e-05
1.00914e-05
9.62065e-06
9.17125e-06
8.74241e-06
8.33334e-06
7.94329e-06
7.57156e-06
7.2175e-06
6.88051e-06
6.56002e-06
6.25552e-06
5.96655e-06
5.69272e-06
5.43368e-06
5.18915e-06
4.95892e-06
4.74285e-06
4.54089e-06
4.35306e-06
4.17949e-06
4.02042e-06
3.87618e-06
3.74723e-06
3.63417e-06
3.5377e-06
3.45864e-06
3.39793e-06
3.35656e-06
3.33547e-06
)
;
    }
    Wall
    {
        type            calculated;
        value           nonuniform List<scalar> 
400
(
0.723392
0.709434
0.699195
0.689835
0.68094
0.672473
0.664337
0.656441
0.648723
0.641138
0.633651
0.626238
0.618878
0.611555
0.604257
0.596978
0.589709
0.582446
0.575188
0.567932
0.560678
0.553426
0.546177
0.538932
0.531693
0.524461
0.517239
0.510029
0.502834
0.495655
0.488496
0.481358
0.474245
0.467159
0.460101
0.453076
0.446084
0.439128
0.432211
0.425335
0.418501
0.411712
0.40497
0.398277
0.391634
0.385044
0.378508
0.372027
0.365603
0.359238
0.352933
0.346689
0.340508
0.33439
0.328337
0.32235
0.316429
0.310575
0.30479
0.299074
0.293427
0.28785
0.282344
0.276908
0.271544
0.266252
0.261032
0.255883
0.250807
0.245804
0.240872
0.236013
0.231227
0.226512
0.221869
0.217298
0.212799
0.208371
0.204014
0.199727
0.19551
0.191364
0.187286
0.183277
0.179337
0.175464
0.171658
0.167919
0.164246
0.160638
0.157096
0.153617
0.150201
0.146848
0.143557
0.140328
0.137159
0.13405
0.131
0.128008
0.125074
0.122196
0.119375
0.116609
0.113898
0.11124
0.108635
0.106083
0.103582
0.101131
0.0987308
0.0963794
0.0940764
0.091821
0.0896124
0.0874499
0.0853327
0.08326
0.0812313
0.0792456
0.0773023
0.0754006
0.0735398
0.0717193
0.0699383
0.0681961
0.066492
0.0648253
0.0631954
0.0616016
0.0600432
0.0585196
0.0570301
0.0555741
0.054151
0.0527601
0.0514009
0.0500727
0.0487749
0.047507
0.0462683
0.0450583
0.0438765
0.0427222
0.041595
0.0404942
0.0394194
0.03837
0.0373456
0.0363456
0.0353694
0.0344167
0.033487
0.0325797
0.0316944
0.0308307
0.0299881
0.0291661
0.0283643
0.0275823
0.0268196
0.0260759
0.0253508
0.0246437
0.0239544
0.0232825
0.0226276
0.0219892
0.0213671
0.0207609
0.0201701
0.0195946
0.0190339
0.0184877
0.0179557
0.0174375
0.0169329
0.0164415
0.015963
0.0154972
0.0150437
0.0146022
0.0141725
0.0137543
0.0133473
0.0129513
0.0125659
0.012191
0.0118263
0.0114715
0.0111264
0.0107908
0.0104645
0.0101471
0.00983858
0.0095386
0.00924698
0.00896352
0.00868802
0.00842027
0.00816008
0.00790727
0.00766163
0.007423
0.00719119
0.00696603
0.00674735
0.00653498
0.00632876
0.00612853
0.00593412
0.0057454
0.00556221
0.0053844
0.00521183
0.00504437
0.00488187
0.0047242
0.00457124
0.00442286
0.00427893
0.00413933
0.00400394
0.00387266
0.00374536
0.00362193
0.00350228
0.00338629
0.00327386
0.0031649
0.0030593
0.00295697
0.00285782
0.00276176
0.0026687
0.00257855
0.00249124
0.00240668
0.00232479
0.00224549
0.00216871
0.00209438
0.00202242
0.00195276
0.00188535
0.0018201
0.00175696
0.00169586
0.00163675
0.00157955
0.00152423
0.00147072
0.00141896
0.0013689
0.0013205
0.00127369
0.00122844
0.00118469
0.0011424
0.00110152
0.00106201
0.00102383
0.000986932
0.000951281
0.000916837
0.000883562
0.000851419
0.000820372
0.000790386
0.000761429
0.000733467
0.000706468
0.000680402
0.000655238
0.000630949
0.000607504
0.000584878
0.000563043
0.000541974
0.000521645
0.000502033
0.000483115
0.000464866
0.000447265
0.000430291
0.000413922
0.00039814
0.000382923
0.000368253
0.000354112
0.000340483
0.000327347
0.000314688
0.000302489
0.000290736
0.000279413
0.000268506
0.000257999
0.00024788
0.000238134
0.00022875
0.000219714
0.000211014
0.000202639
0.000194578
0.000186819
0.000179351
0.000172165
0.000165251
0.000158598
0.000152198
0.000146042
0.00014012
0.000134425
0.000128949
0.000123683
0.00011862
0.000113753
0.000109074
0.000104577
0.000100255
9.61022e-05
9.21115e-05
8.82773e-05
8.45938e-05
8.10556e-05
7.76572e-05
7.43934e-05
7.12593e-05
6.825e-05
6.53608e-05
6.25873e-05
5.9925e-05
5.73698e-05
5.49176e-05
5.25646e-05
5.03069e-05
4.8141e-05
4.60633e-05
4.40704e-05
4.21591e-05
4.03263e-05
3.85689e-05
3.6884e-05
3.52688e-05
3.37206e-05
3.22367e-05
3.08147e-05
2.94521e-05
2.81466e-05
2.68959e-05
2.56979e-05
2.45505e-05
2.34516e-05
2.23994e-05
2.1392e-05
2.04276e-05
1.95044e-05
1.86208e-05
1.77753e-05
1.69662e-05
1.61922e-05
1.54518e-05
1.47435e-05
1.40663e-05
1.34187e-05
1.27995e-05
1.22077e-05
1.16421e-05
1.11017e-05
1.05854e-05
1.00924e-05
9.62154e-06
9.1721e-06
8.74323e-06
8.33412e-06
7.94403e-06
7.57228e-06
7.21819e-06
6.88117e-06
6.56065e-06
6.25612e-06
5.96713e-06
5.69328e-06
5.43422e-06
5.18967e-06
4.95942e-06
4.74333e-06
4.54135e-06
4.3535e-06
4.17992e-06
4.02083e-06
3.87658e-06
3.74763e-06
3.63456e-06
3.53808e-06
3.45902e-06
3.39829e-06
3.35686e-06
3.33573e-06
)
;
    }
}


// ************************************************************************* //
