/*--------------------------------*- C++ -*----------------------------------*\
  =========                 |
  \\      /  F ield         | OpenFOAM: The Open Source CFD Toolbox
   \\    /   O peration     | Website:  https://openfoam.org
    \\  /    A nd           | Version:  dev
     \\/     M anipulation  |
\*---------------------------------------------------------------------------*/
FoamFile
{
    format      ascii;
    class       volScalarField;
    location    "0.24";
    object      N1;
}
// * * * * * * * * * * * * * * * * * * * * * * * * * * * * * * * * * * * * * //

dimensions      [0 0 0 0 0 0 0];

internalField   nonuniform List<scalar> 
8000
(
6.44817e-06
2.05389e-05
3.60339e-05
5.28587e-05
7.10139e-05
9.05506e-05
0.000111516
0.000133961
0.00015794
0.000183513
0.000210742
0.000239692
0.000270428
0.000303016
0.00033752
0.000374005
0.000412532
0.000453163
0.000495958
0.000540973
0.000588263
0.000637881
0.000689878
0.000744302
0.000801199
0.000860611
0.000922581
0.000987146
0.00105434
0.0011242
0.00119675
0.00127202
0.00135003
0.00143081
0.00151437
0.00160073
0.00168988
0.00178186
0.00187664
0.00197425
0.00207466
0.00217788
0.0022839
0.00239269
0.00250423
0.00261851
0.0027355
0.00285516
0.00297746
0.00310236
0.00322982
0.00335978
0.0034922
0.00362701
0.00376417
0.0039036
0.00404523
0.004189
0.00433483
0.00448263
0.00463233
0.00478383
0.00493705
0.00509189
0.00524826
0.00540604
0.00556514
0.00572545
0.00588686
0.00604926
0.00621252
0.00637653
0.00654118
0.00670633
0.00687186
0.00703764
0.00720355
0.00736946
0.00753523
0.00770073
0.00786582
0.00803038
0.00819426
0.00835733
0.00851945
0.00868049
0.00884032
0.00899879
0.00915577
0.00931113
0.00946473
0.00961645
0.00976615
0.0099137
0.010059
0.0102019
0.0103422
0.0104799
0.0106149
0.010747
0.0108761
0.0110021
0.0111249
0.0112443
0.0113604
0.011473
0.011582
0.0116873
0.0117888
0.0118865
0.0119803
0.01207
0.0121558
0.0122374
0.0123148
0.012388
0.0124569
0.0125214
0.0125816
0.0126375
0.0126888
0.0127358
0.0127782
0.0128162
0.0128497
0.0128787
0.0129032
0.0129232
0.0129387
0.0129497
0.0129562
0.0129584
0.0129561
0.0129495
0.0129385
0.0129232
0.0129036
0.0128798
0.0128519
0.0128198
0.0127837
0.0127436
0.0126996
0.0126518
0.0126001
0.0125448
0.0124858
0.0124233
0.0123573
0.0122879
0.0122152
0.0121393
0.0120603
0.0119783
0.0118933
0.0118055
0.011715
0.0116218
0.011526
0.0114278
0.0113273
0.0112245
0.0111195
0.0110125
0.0109035
0.0107927
0.0106801
0.0105659
0.0104501
0.0103329
0.0102143
0.0100944
0.00997338
0.00985128
0.00972821
0.00960424
0.00947949
0.00935403
0.00922796
0.00910137
0.00897433
0.00884693
0.00871926
0.00859139
0.00846341
0.00833539
0.00820741
0.00807954
0.00795184
0.0078244
0.00769727
0.00757052
0.00744422
0.00731842
0.00719319
0.00706858
0.00694464
0.00682143
0.006699
0.0065774
0.00645666
0.00633685
0.00621799
0.00610014
0.00598332
0.00586757
0.00575293
0.00563943
0.0055271
0.00541597
0.00530606
0.00519741
0.00509002
0.00498393
0.00487915
0.0047757
0.0046736
0.00457286
0.0044735
0.00437552
0.00427893
0.00418376
0.00408999
0.00399764
0.00390671
0.00381721
0.00372914
0.0036425
0.00355728
0.00347349
0.00339113
0.00331019
0.00323066
0.00315255
0.00307584
0.00300054
0.00292662
0.00285409
0.00278293
0.00271314
0.0026447
0.0025776
0.00251184
0.00244739
0.00238425
0.0023224
0.00226183
0.00220253
0.00214447
0.00208766
0.00203206
0.00197767
0.00192447
0.00187244
0.00182157
0.00177184
0.00172324
0.00167575
0.00162934
0.00158402
0.00153975
0.00149652
0.00145431
0.00141311
0.0013729
0.00133367
0.00129539
0.00125805
0.00122163
0.00118611
0.00115148
0.00111773
0.00108483
0.00105276
0.00102152
0.000991081
0.000961433
0.000932557
0.000904438
0.000877061
0.000850409
0.000824468
0.000799221
0.000774655
0.000750753
0.000727503
0.000704888
0.000682895
0.000661509
0.000640717
0.000620506
0.00060086
0.000581769
0.000563217
0.000545193
0.000527684
0.000510677
0.00049416
0.000478121
0.000462549
0.000447432
0.000432758
0.000418516
0.000404696
0.000391286
0.000378277
0.000365657
0.000353417
0.000341547
0.000330036
0.000318877
0.000308058
0.000297572
0.000287409
0.000277561
0.000268019
0.000258774
0.000249818
0.000241145
0.000232745
0.000224611
0.000216735
0.000209111
0.000201732
0.000194589
0.000187677
0.00018099
0.000174519
0.00016826
0.000162206
0.000156351
0.000150689
0.000145215
0.000139923
0.000134807
0.000129863
0.000125084
0.000120467
0.000116007
0.000111697
0.000107535
0.000103515
9.96333e-05
9.58852e-05
9.22668e-05
8.87739e-05
8.54026e-05
8.21492e-05
7.901e-05
7.59812e-05
7.30594e-05
7.02413e-05
6.75234e-05
6.49026e-05
6.23757e-05
5.99397e-05
5.75916e-05
5.53287e-05
5.31481e-05
5.10471e-05
4.90231e-05
4.70736e-05
4.51962e-05
4.33884e-05
4.1648e-05
3.99728e-05
3.83607e-05
3.68095e-05
3.53173e-05
3.38822e-05
3.25023e-05
3.11759e-05
2.99013e-05
2.86768e-05
2.75011e-05
2.63726e-05
2.529e-05
2.42519e-05
2.32574e-05
2.23052e-05
2.13945e-05
2.05243e-05
1.9694e-05
1.89031e-05
1.8151e-05
1.74375e-05
1.67626e-05
1.61263e-05
1.55291e-05
1.49714e-05
1.44541e-05
1.39784e-05
1.35458e-05
1.31579e-05
1.2817e-05
1.25255e-05
1.22862e-05
1.21022e-05
1.19767e-05
1.19127e-05
6.31703e-06
2.02474e-05
3.5613e-05
5.23823e-05
7.05429e-05
9.01248e-05
0.000111168
0.00013372
0.000157834
0.000183571
0.000210994
0.000240169
0.000271162
0.000304041
0.000338873
0.000375724
0.000414657
0.000455738
0.000499026
0.000544582
0.000592462
0.000642722
0.000695415
0.000750592
0.0008083
0.000868585
0.000931491
0.000997058
0.00106532
0.00113632
0.00121009
0.00128665
0.00136603
0.00144826
0.00153335
0.00162131
0.00171217
0.00180593
0.0019026
0.00200217
0.00210465
0.00221003
0.00231829
0.00242943
0.00254343
0.00266025
0.00277989
0.0029023
0.00302745
0.0031553
0.00328581
0.00341892
0.0035546
0.00369277
0.00383339
0.00397638
0.00412167
0.0042692
0.00441888
0.00457063
0.00472437
0.00488002
0.00503746
0.00519662
0.00535739
0.00551966
0.00568333
0.00584828
0.00601442
0.00618161
0.00634973
0.00651868
0.00668832
0.00685852
0.00702916
0.0072001
0.00737121
0.00754237
0.00771342
0.00788424
0.00805468
0.00822461
0.00839388
0.00856236
0.00872991
0.00889637
0.00906162
0.00922552
0.00938791
0.00954867
0.00970765
0.00986473
0.0100198
0.0101726
0.0103231
0.0104712
0.0106167
0.0107595
0.0108995
0.0110366
0.0111706
0.0113014
0.011429
0.0115532
0.0116738
0.0117909
0.0119043
0.0120139
0.0121196
0.0122214
0.0123192
0.0124128
0.0125023
0.0125875
0.0126684
0.012745
0.0128172
0.0128849
0.0129481
0.0130067
0.0130608
0.0131103
0.0131552
0.0131955
0.0132311
0.0132621
0.0132884
0.0133101
0.0133271
0.0133395
0.0133473
0.0133505
0.0133492
0.0133434
0.0133331
0.0133183
0.013299
0.0132754
0.0132476
0.0132154
0.0131791
0.0131386
0.0130941
0.0130455
0.0129931
0.0129368
0.0128768
0.0128131
0.0127457
0.0126749
0.0126006
0.0125231
0.0124422
0.0123583
0.0122713
0.0121813
0.0120885
0.0119929
0.0118947
0.011794
0.0116907
0.0115852
0.0114774
0.0113675
0.0112555
0.0111416
0.0110259
0.0109084
0.0107893
0.0106687
0.0105467
0.0104234
0.0102988
0.0101731
0.0100464
0.00991877
0.0097903
0.00966109
0.00953122
0.0094008
0.00926991
0.00913864
0.00900706
0.00887528
0.00874336
0.00861138
0.00847943
0.00834759
0.00821591
0.00808448
0.00795337
0.00782264
0.00769236
0.00756258
0.00743339
0.00730482
0.00717694
0.0070498
0.00692345
0.00679796
0.00667335
0.00654968
0.006427
0.00630534
0.00618474
0.00606524
0.00594688
0.0058297
0.00571371
0.00559895
0.00548546
0.00537325
0.00526234
0.00515277
0.00504455
0.0049377
0.00483224
0.00472817
0.00462553
0.00452431
0.00442453
0.0043262
0.00422932
0.0041339
0.00403995
0.00394747
0.00385646
0.00376693
0.00367887
0.00359228
0.00350716
0.00342351
0.00334132
0.00326059
0.0031813
0.00310347
0.00302706
0.00295209
0.00287854
0.00280639
0.00273564
0.00266628
0.00259829
0.00253166
0.00246638
0.00240244
0.00233981
0.0022785
0.00221847
0.00215973
0.00210224
0.002046
0.00199099
0.00193719
0.00188458
0.00183316
0.0017829
0.00173378
0.00168579
0.00163892
0.00159313
0.00154842
0.00150477
0.00146216
0.00142058
0.00138
0.0013404
0.00130178
0.00126411
0.00122737
0.00119155
0.00115664
0.0011226
0.00108943
0.00105712
0.00102563
0.000994959
0.000965087
0.000935998
0.000907676
0.000880103
0.000853265
0.000827146
0.00080173
0.000777002
0.000752947
0.000729549
0.000706794
0.000684667
0.000663155
0.000642242
0.000621916
0.000602161
0.000582966
0.000564316
0.000546198
0.0005286
0.000511509
0.000494912
0.000478798
0.000463155
0.00044797
0.000433232
0.00041893
0.000405053
0.00039159
0.00037853
0.000365863
0.000353578
0.000341666
0.000330117
0.00031892
0.000308068
0.000297549
0.000287357
0.00027748
0.000267912
0.000258643
0.000249666
0.000240971
0.000232552
0.000224401
0.000216509
0.000208871
0.000201478
0.000194323
0.000187401
0.000180703
0.000174224
0.000167957
0.000161896
0.000156035
0.000150368
0.00014489
0.000139594
0.000134475
0.000129529
0.000124749
0.000120131
0.00011567
0.000111361
0.000107199
0.00010318
9.92997e-05
9.55534e-05
9.19371e-05
8.84467e-05
8.50783e-05
8.1828e-05
7.8692e-05
7.56669e-05
7.27489e-05
6.99348e-05
6.72211e-05
6.46046e-05
6.20823e-05
5.9651e-05
5.73077e-05
5.50497e-05
5.28741e-05
5.07782e-05
4.87594e-05
4.68153e-05
4.49432e-05
4.31409e-05
4.14061e-05
3.97365e-05
3.81301e-05
3.65847e-05
3.50984e-05
3.36692e-05
3.22954e-05
3.09752e-05
2.9707e-05
2.84892e-05
2.73202e-05
2.61987e-05
2.51233e-05
2.40929e-05
2.31064e-05
2.21627e-05
2.12609e-05
2.04004e-05
1.95805e-05
1.88008e-05
1.8061e-05
1.73609e-05
1.67008e-05
1.60809e-05
1.55018e-05
1.49643e-05
1.44697e-05
1.40195e-05
1.36154e-05
1.32598e-05
1.29552e-05
1.27046e-05
1.25112e-05
1.23788e-05
1.23108e-05
6.19917e-06
1.9885e-05
3.49675e-05
5.14816e-05
6.94408e-05
8.8868e-05
0.000109797
0.000132269
0.000156337
0.000182058
0.000209494
0.000238711
0.000269777
0.00030276
0.000337727
0.000374745
0.000413882
0.000455201
0.000498766
0.000544637
0.000592874
0.000643535
0.000696673
0.000752343
0.000810593
0.000871473
0.000935027
0.0010013
0.00107033
0.00114215
0.0012168
0.00129432
0.00137472
0.00145803
0.00154428
0.00163349
0.00172566
0.00182081
0.00191894
0.00202007
0.00212418
0.00223127
0.00234134
0.00245438
0.00257035
0.00268925
0.00281105
0.00293572
0.00306322
0.00319351
0.00332656
0.00346231
0.00360071
0.0037417
0.00388524
0.00403124
0.00417963
0.00433036
0.00448333
0.00463847
0.00479569
0.00495489
0.00511599
0.00527889
0.00544348
0.00560966
0.00577731
0.00594634
0.00611661
0.00628802
0.00646043
0.00663373
0.00680779
0.00698247
0.00715765
0.00733319
0.00750895
0.0076848
0.0078606
0.00803619
0.00821146
0.00838623
0.00856039
0.00873377
0.00890624
0.00907764
0.00924784
0.00941669
0.00958404
0.00974976
0.00991369
0.0100757
0.0102356
0.0103934
0.0105488
0.0107017
0.0108521
0.0109996
0.0111444
0.0112861
0.0114247
0.0115601
0.0116922
0.0118208
0.0119458
0.0120672
0.0121848
0.0122986
0.0124083
0.0125141
0.0126157
0.0127131
0.0128063
0.0128951
0.0129794
0.0130594
0.0131347
0.0132056
0.0132718
0.0133333
0.0133902
0.0134423
0.0134897
0.0135324
0.0135702
0.0136033
0.0136316
0.0136552
0.0136739
0.0136879
0.0136972
0.0137017
0.0137016
0.0136969
0.0136874
0.0136734
0.0136548
0.0136317
0.0136042
0.0135722
0.013536
0.0134955
0.0134508
0.0134019
0.0133491
0.0132922
0.0132315
0.013167
0.0130987
0.0130269
0.0129515
0.0128726
0.0127904
0.0127049
0.0126163
0.0125246
0.01243
0.0123325
0.0122323
0.0121294
0.012024
0.0119161
0.011806
0.0116936
0.011579
0.0114625
0.0113441
0.0112239
0.011102
0.0109784
0.0108535
0.0107271
0.0105995
0.0104706
0.0103408
0.0102099
0.0100781
0.00994561
0.0098124
0.00967859
0.00954428
0.00940955
0.0092745
0.00913922
0.00900377
0.00886826
0.00873276
0.00859734
0.00846208
0.00832706
0.00819236
0.00805803
0.00792414
0.00779077
0.00765797
0.00752581
0.00739435
0.00726363
0.00713373
0.00700467
0.00687653
0.00674934
0.00662315
0.00649801
0.00637395
0.00625101
0.00612924
0.00600866
0.00588931
0.00577121
0.00565441
0.00553892
0.00542477
0.00531198
0.00520058
0.00509058
0.004982
0.00487486
0.00476917
0.00466494
0.0045622
0.00446093
0.00436116
0.00426289
0.00416612
0.00407087
0.00397712
0.00388489
0.00379417
0.00370496
0.00361727
0.00353108
0.0034464
0.00336321
0.00328151
0.0032013
0.00312257
0.00304531
0.0029695
0.00289514
0.00282222
0.00275073
0.00268065
0.00261197
0.00254467
0.00247876
0.0024142
0.00235098
0.0022891
0.00222853
0.00216926
0.00211127
0.00205455
0.00199907
0.00194483
0.0018918
0.00183997
0.00178932
0.00173983
0.00169148
0.00164426
0.00159815
0.00155313
0.00150918
0.00146628
0.00142442
0.00138358
0.00134374
0.00130488
0.00126698
0.00123003
0.00119401
0.0011589
0.00112468
0.00109133
0.00105885
0.0010272
0.00099638
0.000966365
0.000937141
0.00090869
0.000880996
0.000854043
0.000827815
0.000802297
0.000777472
0.000753325
0.000729841
0.000707005
0.000684803
0.000663219
0.00064224
0.000621851
0.000602038
0.000582787
0.000564086
0.000545921
0.000528279
0.000511147
0.000494513
0.000478364
0.000462689
0.000447474
0.00043271
0.000418383
0.000404484
0.000391001
0.000377922
0.000365239
0.00035294
0.000341015
0.000329455
0.000318249
0.000307389
0.000296864
0.000286666
0.000276785
0.000267214
0.000257943
0.000248965
0.000240271
0.000231853
0.000223703
0.000215814
0.000208179
0.00020079
0.00019364
0.000186723
0.000180031
0.000173558
0.000167298
0.000161245
0.000155391
0.000149732
0.000144262
0.000138975
0.000133865
0.000128928
0.000124157
0.000119548
0.000115097
0.000110797
0.000106645
0.000102637
9.87661e-05
9.50299e-05
9.14237e-05
8.79435e-05
8.45852e-05
8.13451e-05
7.82193e-05
7.52043e-05
7.22965e-05
6.94924e-05
6.67887e-05
6.41822e-05
6.16698e-05
5.92483e-05
5.69148e-05
5.46665e-05
5.25005e-05
5.04142e-05
4.84048e-05
4.647e-05
4.46073e-05
4.28142e-05
4.10885e-05
3.9428e-05
3.78306e-05
3.62941e-05
3.48168e-05
3.33966e-05
3.20317e-05
3.07205e-05
2.94613e-05
2.82526e-05
2.70929e-05
2.59808e-05
2.4915e-05
2.38945e-05
2.29182e-05
2.19852e-05
2.10947e-05
2.0246e-05
1.94386e-05
1.86723e-05
1.79469e-05
1.72625e-05
1.66194e-05
1.60183e-05
1.54599e-05
1.49454e-05
1.44765e-05
1.40549e-05
1.36831e-05
1.33638e-05
1.31001e-05
1.28959e-05
1.27551e-05
1.26823e-05
6.08253e-06
1.95067e-05
3.42782e-05
5.04648e-05
6.81111e-05
8.72524e-05
0.000107927
0.000130177
0.000154055
0.000179617
0.000206925
0.000236043
0.000267039
0.000299981
0.000334937
0.000371973
0.000411158
0.000452557
0.000496233
0.000542249
0.000590665
0.000641541
0.000694933
0.000750895
0.000809479
0.000870736
0.000934713
0.00100145
0.001071
0.0011434
0.00121867
0.00129686
0.001378
0.00146212
0.00154922
0.00163935
0.00173251
0.00182872
0.00192798
0.0020303
0.00213568
0.00224412
0.00235562
0.00247015
0.00258771
0.00270827
0.00283181
0.0029583
0.00308771
0.00322
0.00335513
0.00349304
0.00363369
0.00377703
0.00392298
0.0040715
0.00422249
0.00437591
0.00453165
0.00468965
0.0048498
0.00501204
0.00517625
0.00534233
0.00551019
0.00567972
0.00585081
0.00602333
0.00619718
0.00637224
0.00654837
0.00672546
0.00690336
0.00708196
0.00726111
0.00744068
0.00762052
0.0078005
0.00798048
0.0081603
0.00833982
0.0085189
0.00869739
0.00887514
0.00905199
0.00922781
0.00940244
0.00957573
0.00974754
0.00991771
0.0100861
0.0102526
0.010417
0.0105792
0.010739
0.0108963
0.011051
0.011203
0.011352
0.0114981
0.011641
0.0117806
0.0119168
0.0120495
0.0121786
0.012304
0.0124255
0.0125431
0.0126567
0.0127661
0.0128714
0.0129724
0.013069
0.0131612
0.0132488
0.013332
0.0134105
0.0134843
0.0135534
0.0136178
0.0136773
0.013732
0.0137819
0.0138269
0.0138671
0.0139023
0.0139326
0.0139581
0.0139786
0.0139943
0.0140051
0.0140111
0.0140122
0.0140087
0.0140003
0.0139872
0.0139694
0.013947
0.01392
0.0138886
0.0138526
0.0138123
0.0137677
0.0137189
0.0136658
0.0136087
0.0135476
0.0134826
0.0134137
0.0133412
0.0132649
0.0131851
0.0131019
0.0130153
0.0129254
0.0128324
0.0127363
0.0126373
0.0125354
0.0124308
0.0123236
0.0122139
0.0121017
0.0119873
0.0118706
0.0117519
0.0116312
0.0115087
0.0113843
0.0112584
0.0111308
0.0110019
0.0108716
0.0107401
0.0106075
0.0104738
0.0103392
0.0102038
0.0100677
0.00993092
0.00979362
0.00965587
0.00951778
0.00937942
0.00924088
0.00910225
0.0089636
0.00882503
0.00868661
0.00854842
0.00841052
0.008273
0.00813591
0.00799934
0.00786334
0.00772798
0.00759331
0.0074594
0.0073263
0.00719407
0.00706276
0.00693241
0.00680308
0.0066748
0.00654763
0.0064216
0.00629674
0.00617311
0.00605072
0.00592962
0.00580982
0.00569137
0.00557428
0.00545858
0.0053443
0.00523144
0.00512004
0.0050101
0.00490165
0.00479469
0.00468924
0.00458531
0.00448291
0.00438204
0.0042827
0.00418491
0.00408867
0.00399398
0.00390083
0.00380924
0.00371919
0.00363068
0.00354371
0.00345828
0.00337437
0.00329199
0.00321112
0.00313175
0.00305388
0.00297749
0.00290258
0.00282912
0.00275712
0.00268655
0.00261741
0.00254968
0.00248334
0.00241838
0.00235478
0.00229253
0.00223161
0.00217201
0.00211371
0.00205669
0.00200093
0.00194642
0.00189314
0.00184107
0.00179019
0.00174049
0.00169194
0.00164453
0.00159824
0.00155305
0.00150894
0.0014659
0.0014239
0.00138293
0.00134297
0.00130399
0.00126599
0.00122894
0.00119283
0.00115763
0.00112334
0.00108992
0.00105737
0.00102567
0.00099479
0.000964726
0.000935458
0.000906967
0.000879239
0.000852255
0.000826001
0.000800459
0.000775615
0.000751452
0.000727955
0.00070511
0.0006829
0.000661312
0.00064033
0.000619942
0.000600131
0.000580886
0.000562191
0.000544035
0.000526403
0.000509282
0.000492661
0.000476527
0.000460867
0.000445669
0.000430923
0.000416615
0.000402736
0.000389273
0.000376217
0.000363555
0.000351279
0.000339378
0.000327841
0.00031666
0.000305824
0.000295324
0.000285151
0.000275296
0.00026575
0.000256505
0.000247553
0.000238885
0.000230493
0.000222369
0.000214507
0.000206897
0.000199534
0.00019241
0.000185518
0.000178852
0.000172405
0.000166169
0.000160141
0.000154312
0.000148678
0.000143232
0.000137968
0.000132882
0.000127968
0.000123221
0.000118635
0.000114206
0.000109928
0.000105798
0.000101811
9.79615e-05
9.42461e-05
9.06603e-05
8.72002e-05
8.38617e-05
8.0641e-05
7.75343e-05
7.4538e-05
7.16485e-05
6.88625e-05
6.61765e-05
6.35874e-05
6.10919e-05
5.86871e-05
5.63699e-05
5.41376e-05
5.19873e-05
4.99163e-05
4.79221e-05
4.60021e-05
4.41538e-05
4.23749e-05
4.06632e-05
3.90165e-05
3.74325e-05
3.59094e-05
3.44452e-05
3.30379e-05
3.16859e-05
3.03874e-05
2.91408e-05
2.79447e-05
2.67976e-05
2.56982e-05
2.46453e-05
2.36378e-05
2.26748e-05
2.17554e-05
2.0879e-05
2.0045e-05
1.92531e-05
1.85032e-05
1.77952e-05
1.71295e-05
1.65066e-05
1.59275e-05
1.53933e-05
1.49055e-05
1.44662e-05
1.40778e-05
1.37432e-05
1.3466e-05
1.32502e-05
1.31005e-05
1.30226e-05
5.97249e-06
1.9148e-05
3.36258e-05
4.94817e-05
6.67815e-05
8.55783e-05
0.000105922
0.000127864
0.00015146
0.000176767
0.000203849
0.00023277
0.000263597
0.000296397
0.000331238
0.000368188
0.000407312
0.000448678
0.000492348
0.000538386
0.000586854
0.000637811
0.000691315
0.000747422
0.000806185
0.000867656
0.000931883
0.000998915
0.00106879
0.00114156
0.00121726
0.00129591
0.00137757
0.00146224
0.00154997
0.00164076
0.00173465
0.00183164
0.00193174
0.00203497
0.00214132
0.00225079
0.00236339
0.00247908
0.00259788
0.00271974
0.00284466
0.0029726
0.00310353
0.00323742
0.00337422
0.00351388
0.00365636
0.00380159
0.00394953
0.0041001
0.00425323
0.00440885
0.00456689
0.00472725
0.00488985
0.0050546
0.00522141
0.00539016
0.00556077
0.00573311
0.00590709
0.00608257
0.00625945
0.0064376
0.00661689
0.0067972
0.00697839
0.00716032
0.00734287
0.00752589
0.00770924
0.00789278
0.00807636
0.00825983
0.00844304
0.00862584
0.00880809
0.00898963
0.0091703
0.00934997
0.00952846
0.00970564
0.00988135
0.0100554
0.0102278
0.0103981
0.0105665
0.0107326
0.0108963
0.0110576
0.0112162
0.011372
0.0115249
0.0116748
0.0118214
0.0119648
0.0121048
0.0122412
0.0123739
0.0125029
0.012628
0.0127491
0.0128661
0.0129789
0.0130875
0.0131917
0.0132915
0.0133868
0.0134775
0.0135636
0.013645
0.0137216
0.0137934
0.0138604
0.0139225
0.0139796
0.0140319
0.0140791
0.0141214
0.0141587
0.014191
0.0142183
0.0142405
0.0142579
0.0142702
0.0142776
0.01428
0.0142777
0.0142705
0.0142584
0.0142415
0.0142199
0.0141936
0.0141627
0.0141272
0.0140873
0.0140429
0.0139942
0.0139412
0.0138841
0.0138228
0.0137575
0.0136883
0.0136152
0.0135384
0.013458
0.013374
0.0132865
0.0131957
0.0131017
0.0130045
0.0129043
0.0128011
0.0126952
0.0125865
0.0124752
0.0123615
0.0122454
0.012127
0.0120065
0.0118839
0.0117594
0.0116331
0.011505
0.0113754
0.0112443
0.0111118
0.010978
0.010843
0.010707
0.01057
0.0104321
0.0102935
0.0101542
0.0100144
0.00987405
0.00973334
0.00959233
0.00945113
0.00930981
0.00916847
0.00902717
0.00888601
0.00874507
0.00860441
0.00846411
0.00832425
0.00818489
0.00804611
0.00790795
0.0077705
0.0076338
0.00749792
0.00736291
0.00722882
0.00709571
0.00696362
0.00683261
0.0067027
0.00657395
0.00644639
0.00632007
0.00619501
0.00607126
0.00594883
0.00582776
0.00570809
0.00558982
0.00547299
0.00535761
0.00524371
0.0051313
0.00502041
0.00491103
0.00480319
0.00469689
0.00459215
0.00448897
0.00438736
0.00428733
0.00418887
0.00409199
0.00399668
0.00390296
0.00381082
0.00372024
0.00363124
0.00354381
0.00345793
0.00337361
0.00329083
0.00320959
0.00312987
0.00305167
0.00297498
0.00289978
0.00282606
0.0027538
0.002683
0.00261364
0.00254571
0.00247918
0.00241405
0.0023503
0.00228791
0.00222687
0.00216715
0.00210874
0.00205162
0.00199578
0.0019412
0.00188786
0.00183573
0.00178481
0.00173507
0.00168649
0.00163906
0.00159275
0.00154756
0.00150345
0.00146041
0.00141842
0.00137746
0.00133752
0.00129857
0.0012606
0.00122358
0.00118751
0.00115235
0.0011181
0.00108473
0.00105223
0.00102058
0.000989758
0.000959751
0.000930542
0.000902113
0.000874447
0.000847527
0.000821338
0.000795863
0.000771087
0.000746993
0.000723565
0.00070079
0.000678651
0.000657133
0.000636223
0.000615906
0.000596167
0.000576994
0.000558371
0.000540286
0.000522725
0.000505676
0.000489126
0.000473062
0.000457473
0.000442345
0.000427667
0.000413429
0.000399617
0.000386222
0.000373232
0.000360637
0.000348426
0.000336589
0.000325116
0.000313997
0.000303223
0.000292784
0.000282672
0.000272876
0.000263389
0.000254202
0.000245306
0.000236694
0.000228357
0.000220287
0.000212477
0.00020492
0.000197608
0.000190534
0.000183692
0.000177074
0.000170674
0.000164485
0.000158502
0.000152718
0.000147127
0.000141723
0.000136502
0.000131457
0.000126583
0.000121875
0.000117327
0.000112936
0.000108695
0.000104601
0.000100648
9.68329e-05
9.31509e-05
8.95977e-05
8.61694e-05
8.28619e-05
7.96715e-05
7.65943e-05
7.36268e-05
7.07655e-05
6.80068e-05
6.53476e-05
6.27844e-05
6.03144e-05
5.79343e-05
5.56412e-05
5.34324e-05
5.1305e-05
4.92563e-05
4.72839e-05
4.53851e-05
4.35575e-05
4.17988e-05
4.01069e-05
3.84794e-05
3.69143e-05
3.54096e-05
3.39635e-05
3.25739e-05
3.12394e-05
2.9958e-05
2.87284e-05
2.75491e-05
2.64187e-05
2.53359e-05
2.42997e-05
2.33091e-05
2.2363e-05
2.1461e-05
2.06023e-05
1.97866e-05
1.90137e-05
1.82837e-05
1.75968e-05
1.69535e-05
1.63548e-05
1.58017e-05
1.5296e-05
1.48397e-05
1.44352e-05
1.40859e-05
1.37953e-05
1.35681e-05
1.34097e-05
1.33267e-05
5.87515e-06
1.88297e-05
3.30468e-05
4.86014e-05
6.55698e-05
8.40203e-05
0.000104017
0.000125621
0.000148895
0.000173903
0.00020071
0.000229381
0.000259984
0.000292586
0.000327254
0.000364054
0.000403053
0.000444316
0.000487908
0.000533891
0.000582327
0.000633277
0.000686799
0.000742949
0.000801783
0.000863354
0.000927712
0.000994904
0.00106498
0.00113797
0.00121393
0.00129289
0.00137489
0.00145995
0.0015481
0.00163936
0.00173377
0.00183132
0.00193204
0.00203593
0.002143
0.00225324
0.00236666
0.00248325
0.00260298
0.00272585
0.00285183
0.00298089
0.00311301
0.00324814
0.00338625
0.00352729
0.00367121
0.00381796
0.00396747
0.00411968
0.00427452
0.00443192
0.0045918
0.00475408
0.00491866
0.00508545
0.00525437
0.0054253
0.00559814
0.00577279
0.00594914
0.00612705
0.00630642
0.00648712
0.00666902
0.00685199
0.0070359
0.00722062
0.00740599
0.00759189
0.00777817
0.00796467
0.00815126
0.00833779
0.00852409
0.00871003
0.00889544
0.00908017
0.00926407
0.00944698
0.00962875
0.00980922
0.00998824
0.0101657
0.0103413
0.010515
0.0106867
0.0108562
0.0110233
0.0111879
0.0113498
0.011509
0.0116652
0.0118183
0.0119683
0.0121149
0.0122581
0.0123977
0.0125336
0.0126657
0.0127938
0.012918
0.013038
0.0131538
0.0132653
0.0133724
0.0134749
0.013573
0.0136664
0.013755
0.013839
0.0139181
0.0139923
0.0140616
0.0141259
0.0141853
0.0142396
0.0142889
0.0143332
0.0143723
0.0144064
0.0144354
0.0144593
0.0144781
0.0144919
0.0145006
0.0145043
0.0145031
0.0144971
0.0144859
0.0144699
0.0144491
0.0144235
0.0143932
0.0143583
0.0143188
0.0142748
0.0142263
0.0141735
0.0141164
0.0140551
0.0139897
0.0139203
0.013847
0.0137698
0.0136889
0.0136044
0.0135163
0.0134248
0.01333
0.013232
0.0131309
0.0130267
0.0129197
0.0128099
0.0126975
0.0125824
0.012465
0.0123452
0.0122232
0.0120991
0.0119731
0.0118451
0.0117154
0.011584
0.0114511
0.0113168
0.0111812
0.0110443
0.0109063
0.0107673
0.0106274
0.0104868
0.0103454
0.0102034
0.0100609
0.00991803
0.00977482
0.00963139
0.00948783
0.00934422
0.00920064
0.00905719
0.00891393
0.00877095
0.00862832
0.00848612
0.00834441
0.00820327
0.00806276
0.00792295
0.0077839
0.00764566
0.0075083
0.00737186
0.0072364
0.00710198
0.00696863
0.0068364
0.00670534
0.00657548
0.00644687
0.00631954
0.00619353
0.00606886
0.00594556
0.00582367
0.00570321
0.00558421
0.00546668
0.00535064
0.00523612
0.00512313
0.00501168
0.00490179
0.00479347
0.00468673
0.00458157
0.00447801
0.00437604
0.00427568
0.00417692
0.00407976
0.00398421
0.00389026
0.00379792
0.00370717
0.00361801
0.00353044
0.00344445
0.00336003
0.00327717
0.00319586
0.0031161
0.00303787
0.00296116
0.00288595
0.00281225
0.00274002
0.00266925
0.00259994
0.00253207
0.00246561
0.00240056
0.00233689
0.0022746
0.00221365
0.00215404
0.00209575
0.00203876
0.00198305
0.0019286
0.0018754
0.00182342
0.00177264
0.00172305
0.00167463
0.00162736
0.00158122
0.00153619
0.00149224
0.00144937
0.00140755
0.00136677
0.001327
0.00128822
0.00125043
0.00121358
0.00117768
0.0011427
0.00110862
0.00107543
0.0010431
0.00101162
0.000980976
0.000951141
0.000922102
0.000893842
0.000866344
0.000839592
0.000813568
0.000788256
0.000763641
0.000739708
0.000716439
0.00069382
0.000671836
0.000650471
0.000629712
0.000609543
0.000589952
0.000570922
0.000552442
0.000534498
0.000517075
0.000500162
0.000483746
0.000467814
0.000452354
0.000437353
0.0004228
0.000408684
0.000394993
0.000381716
0.000368842
0.00035636
0.000344261
0.000332533
0.000321168
0.000310154
0.000299483
0.000289145
0.000279131
0.000269432
0.000260039
0.000250944
0.000242139
0.000233615
0.000225364
0.000217379
0.000209652
0.000202175
0.000194942
0.000187945
0.000181177
0.000174633
0.000168304
0.000162185
0.00015627
0.000150552
0.000145026
0.000139686
0.000134526
0.000129541
0.000124726
0.000120074
0.000115582
0.000111245
0.000107057
0.000103013
9.91108e-05
9.53442e-05
9.17094e-05
8.82022e-05
8.48185e-05
8.15545e-05
7.84063e-05
7.53703e-05
7.24427e-05
6.96202e-05
6.68993e-05
6.42767e-05
6.17493e-05
5.93138e-05
5.69674e-05
5.47071e-05
5.25301e-05
5.04335e-05
4.84149e-05
4.64716e-05
4.46012e-05
4.28012e-05
4.10694e-05
3.94036e-05
3.78015e-05
3.62613e-05
3.47808e-05
3.33582e-05
3.19918e-05
3.06798e-05
2.94207e-05
2.82129e-05
2.70551e-05
2.59459e-05
2.48843e-05
2.38691e-05
2.28995e-05
2.19747e-05
2.10941e-05
2.02572e-05
1.94639e-05
1.87142e-05
1.80083e-05
1.73467e-05
1.67303e-05
1.61603e-05
1.56383e-05
1.51664e-05
1.47474e-05
1.43844e-05
1.40816e-05
1.38439e-05
1.36774e-05
1.35896e-05
5.79365e-06
1.85631e-05
3.25624e-05
4.78623e-05
6.45434e-05
8.26841e-05
0.00010236
0.000123644
0.000146606
0.000171317
0.000197846
0.000226259
0.000256627
0.000289014
0.000323489
0.000360118
0.000398965
0.000440096
0.000483574
0.000529463
0.000577824
0.000628717
0.000682203
0.000738338
0.000797177
0.000858775
0.000923183
0.000990451
0.00106062
0.00113375
0.00120986
0.00128901
0.00137122
0.00145653
0.00154496
0.00163655
0.0017313
0.00182925
0.0019304
0.00203476
0.00214235
0.00225315
0.00236717
0.0024844
0.00260483
0.00272844
0.00285521
0.00298512
0.00311812
0.0032542
0.00339331
0.0035354
0.00368042
0.00382832
0.00397904
0.00413252
0.00428869
0.00444746
0.00460877
0.00477253
0.00493866
0.00510705
0.00527762
0.00545026
0.00562486
0.00580133
0.00597954
0.00615937
0.00634071
0.00652343
0.0067074
0.00689249
0.00707857
0.0072655
0.00745313
0.00764133
0.00782994
0.00801883
0.00820784
0.00839681
0.00858561
0.00877406
0.00896202
0.00914933
0.00933584
0.00952138
0.0097058
0.00988894
0.0100706
0.0102508
0.0104291
0.0106056
0.01078
0.0109522
0.011122
0.0112893
0.011454
0.0116159
0.0117748
0.0119307
0.0120833
0.0122326
0.0123785
0.0125207
0.0126592
0.0127939
0.0129246
0.0130513
0.0131738
0.013292
0.0134059
0.0135154
0.0136203
0.0137206
0.0138162
0.0139071
0.0139932
0.0140744
0.0141506
0.0142219
0.0142882
0.0143494
0.0144055
0.0144565
0.0145024
0.0145432
0.0145788
0.0146092
0.0146345
0.0146546
0.0146697
0.0146796
0.0146844
0.0146842
0.0146792
0.0146689
0.0146537
0.0146336
0.0146087
0.014579
0.0145446
0.0145055
0.0144618
0.0144137
0.0143611
0.0143041
0.0142429
0.0141775
0.014108
0.0140345
0.0139572
0.013876
0.0137911
0.0137026
0.0136106
0.0135153
0.0134166
0.0133148
0.01321
0.0131021
0.0129915
0.0128781
0.0127621
0.0126437
0.0125228
0.0123997
0.0122744
0.0121471
0.0120179
0.0118869
0.0117542
0.0116199
0.0114841
0.011347
0.0112086
0.0110691
0.0109285
0.010787
0.0106447
0.0105017
0.010358
0.0102138
0.0100691
0.00992418
0.00977897
0.0096336
0.00948817
0.00934276
0.00919745
0.00905233
0.00890748
0.00876297
0.00861888
0.00847528
0.00833224
0.00818983
0.00804811
0.00790715
0.007767
0.00762773
0.00748939
0.00735203
0.00721571
0.00708046
0.00694635
0.00681341
0.00668168
0.00655121
0.00642203
0.00629417
0.00616767
0.00604256
0.00591887
0.00579662
0.00567584
0.00555655
0.00543877
0.00532252
0.00520782
0.00509468
0.00498311
0.00487313
0.00476475
0.00465798
0.00455281
0.00444927
0.00434734
0.00424704
0.00414837
0.00405132
0.00395589
0.00386209
0.0037699
0.00367933
0.00359037
0.003503
0.00341723
0.00333304
0.00325043
0.00316939
0.00308989
0.00301194
0.00293552
0.00286061
0.0027872
0.00271528
0.00264484
0.00257585
0.0025083
0.00244218
0.00237746
0.00231413
0.00225218
0.00219158
0.00213232
0.00207438
0.00201774
0.00196238
0.00190828
0.00185543
0.0018038
0.00175338
0.00170414
0.00165607
0.00160915