# Probe 0 (0.05 0.01 0.001)
# Probe 1 (0.1 0.01 0.001)
# Probe 2 (0.15 0.01 0.001)
# Probe 3 (0.2 0.01 0.001)
# Probe 4 (0.25 0.01 0.001)
# Probe 5 (0.3 0.01 0.001)
# Probe 6 (0.35 0.01 0.001)
# Time        0             1             2             3             4             5             6            
0             0             0             0             0             0             0             0            
0.0001        9.12084e-25   1.8783e-50    1.0811e-77    1.84956e-105  5.51905e-133  4.89473e-160  5.04932e-187 
0.0002        2.69074e-22   2.12964e-45   9.07488e-71   2.5897e-97    2.75974e-124  4.74408e-151  1.05292e-177 
0.0003        6.23816e-21   1.25432e-42   1.46278e-66   5.70551e-92   3.17597e-118  9.93512e-145  3.89684e-171 
0.0004        7.57847e-20   1.26823e-40   2.11515e-63   9.70046e-88   3.80171e-113  3.59866e-139  2.33722e-165 
0.0005        6.2127e-19    4.95628e-39   6.12636e-61   2.41855e-84   6.53237e-109  2.69813e-134  3.86626e-160 
0.0006        3.87242e-18   1.09362e-37   6.2017e-59    1.45744e-81   2.31782e-105  4.51971e-130  2.00833e-155 
0.0007        1.96542e-17   1.63765e-36   3.1274e-57    3.1235e-79    2.35802e-102  2.03281e-126  3.21364e-151 
0.0008        8.48746e-17   1.84442e-35   9.70041e-56   3.16646e-77   9.06138e-100  3.0411e-123   1.70113e-147 
0.0009        3.21413e-16   1.66562e-34   2.10244e-54   1.85147e-75   1.64217e-97   1.84724e-120  3.40473e-144 
0.001         1.09091e-15   1.25909e-33   3.45462e-53   7.1393e-74    1.66473e-95   5.41152e-118  2.97538e-141 
0.0011        3.37336e-15   8.21461e-33   4.54757e-52   1.98886e-72   1.07133e-93   8.81119e-116  1.29751e-138 
0.0012        9.62466e-15   4.7315e-32    4.98728e-51   4.26655e-71   4.80069e-92   8.92636e-114  3.17227e-136 
0.0013        2.55929e-14   2.44805e-31   4.69027e-50   7.38042e-70   1.60291e-90   6.14218e-112  4.79479e-134 
0.0014        6.39437e-14   1.15335e-30   3.86668e-49   1.06539e-68   4.19417e-89   3.07113e-110  4.85314e-132 
0.0015        1.51124e-13   5.00232e-30   2.84284e-48   1.31747e-67   8.93557e-88   1.17548e-108  3.50805e-130 
0.0016        3.3975e-13    2.01522e-29   1.88976e-47   1.42461e-66   1.59658e-86   3.58645e-107  1.90649e-128 
0.0017        7.26615e-13   7.36459e-29   1.06457e-46   1.19672e-65   1.99424e-85   6.75627e-106  5.55147e-127 
0.0018        1.49364e-12   2.5539e-28    5.62502e-46   9.29891e-65   2.26434e-84   1.13213e-104  1.40065e-125 
0.0019        2.96025e-12   8.43437e-28   2.80042e-45   6.72378e-64   2.35604e-83   1.70585e-103  3.10594e-124 
0.002         5.67227e-12   2.66131e-27   1.31888e-44   4.54769e-63   2.26201e-82   2.3325e-102   6.12634e-123 
0.0021        1.05344e-11   8.04627e-27   5.89689e-44   2.89035e-62   2.01595e-81   2.91718e-101  1.08594e-121 
0.0022        1.90046e-11   2.33721e-26   2.51114e-43   1.73325e-61   1.6766e-80    3.36011e-100  1.74529e-120 
0.0023        3.33719e-11   6.53804e-26   1.02143e-42   9.84256e-61   1.30732e-79   3.58603e-99   2.56297e-119 
0.0024        5.71445e-11   1.76521e-25   3.97917e-42   5.31036e-60   9.5972e-79    3.565e-98     3.46239e-118 
0.0025        9.55786e-11   4.60913e-25   1.48821e-41   2.73024e-59   6.65802e-78   3.31698e-97   4.32869e-117 
0.0026        1.56386e-10   1.16604e-24   5.35536e-41   1.34126e-58   4.3797e-77    2.90067e-96   5.03475e-116 
0.0027        2.50663e-10   2.86298e-24   1.85798e-40   6.31149e-58   2.74008e-76   2.39314e-95   5.47373e-115 
0.0028        3.94079e-10   6.83303e-24   6.22637e-40   2.85126e-57   1.63495e-75   1.86909e-94   5.58598e-114 
0.0029        6.08394e-10   1.58754e-23   2.0189e-39    1.23916e-56   9.32734e-75   1.3862e-93    5.37115e-113 
0.003         9.23335e-10   3.59528e-23   6.34412e-39   5.19072e-56   5.09946e-74   9.78977e-93   4.88283e-112 
0.0031        1.3789e-09    7.94655e-23   1.93484e-38   2.09943e-55   2.67745e-73   6.6005e-92    4.20974e-111 
0.0032        2.02817e-09   1.71617e-22   5.73493e-38   8.21213e-55   1.35267e-72   4.25848e-91   3.45177e-110 
0.0033        2.94059e-09   3.62533e-22   1.65415e-37   3.11131e-54   6.58744e-72   2.63475e-90   2.69866e-109 
0.0034        4.20596e-09   7.49847e-22   4.64835e-37   1.14333e-53   3.09753e-71   1.56634e-89   2.01651e-108 
0.0035        5.93895e-09   1.52e-21      1.27404e-36   4.08044e-53   1.4085e-70    8.96376e-89   1.44323e-107 
0.0036        8.28437e-09   3.02229e-21   3.40935e-36   1.41605e-52   6.20241e-70   4.94634e-88   9.91345e-107 
0.0037        1.14232e-08   5.89946e-21   8.91642e-36   4.78384e-52   2.64855e-69   2.63602e-87   6.5474e-106  
0.0038        1.55793e-08   1.13136e-20   2.28104e-35   1.57495e-51   1.09809e-68   1.35868e-86   4.16496e-105 
0.0039        2.10269e-08   2.13315e-20   5.7131e-35    5.05803e-51   4.42547e-68   6.78238e-86   2.55588e-104 
0.004         2.80991e-08   3.95701e-20   1.40202e-34   1.58609e-50   1.73557e-67   3.28316e-85   1.51531e-103 
0.0041        3.7197e-08    7.2263e-20    3.37374e-34   4.86059e-50   6.6303e-67    1.54299e-84   8.69144e-103 
0.0042        4.87995e-08   1.29996e-19   7.96623e-34   1.45688e-49   2.46973e-66   7.04826e-84   4.82917e-102 
0.0043        6.3474e-08    2.30495e-19   1.84702e-33   4.27442e-49   8.97808e-66   3.13257e-83   2.60236e-101 
0.0044        8.18882e-08   4.03035e-19   4.20771e-33   1.22848e-48   3.18792e-65   1.35595e-82   1.36166e-100 
0.0045        1.04822e-07   6.95337e-19   9.42407e-33   3.46097e-48   1.10655e-64   5.72163e-82   6.92529e-100 
0.0046        1.33181e-07   1.18422e-18   2.07634e-32   9.56442e-48   3.75754e-64   2.3556e-81    3.42697e-99  
0.0047        1.68008e-07   1.99183e-18   4.50257e-32   2.5943e-47    1.24916e-63   9.47003e-81   1.65156e-98  
0.0048        2.10501e-07   3.31013e-18   9.61503e-32   6.91105e-47   4.06831e-63   3.72053e-80   7.75846e-98  
0.0049        2.62023e-07   5.4374e-18    2.02294e-31   1.80914e-46   1.29888e-62   1.4295e-79    3.55564e-97  
0.005         3.2412e-07    8.8321e-18    4.19525e-31   4.65631e-46   4.0677e-62    5.37512e-79   1.59099e-96  
0.0051        3.98535e-07   1.41914e-17   8.57966e-31   1.17889e-45   1.25028e-61   1.97928e-78   6.95574e-96  
0.0052        4.87225e-07   2.25649e-17   1.73103e-30   2.93747e-45   3.77384e-61   7.14181e-78   2.97341e-95  
0.0053        5.92374e-07   3.55167e-17   3.44694e-30   7.20687e-45   1.11919e-60   2.52667e-77   1.24362e-94  
0.0054        7.1641e-07    5.53564e-17   6.7768e-30    1.74173e-44   3.2627e-60    8.76933e-77   5.09226e-94  
0.0055        8.6202e-07    8.54617e-17   1.31594e-29   4.14813e-44   9.35419e-60   2.98732e-76   2.04252e-93  
0.0056        1.03217e-06   1.30729e-16   2.52472e-29   9.73924e-44   2.63856e-59   9.99282e-76   8.02914e-93  
0.0057        1.2301e-06    1.98193e-16   4.7873e-29    2.25495e-43   7.32495e-59   3.28348e-75   3.09434e-92  
0.0058        1.45936e-06   2.97866e-16   8.97353e-29   5.14952e-43   2.00153e-58   1.05981e-74   1.16905e-91  
0.0059        1.724e-06     4.44359e-16   1.66978e-28   1.17115e-42   5.48002e-58   3.45764e-74   4.51451e-91  
0.006         2.02809e-06   6.57434e-16   3.07231e-28   2.62664e-42   1.4756e-57    1.10624e-73   1.70435e-90  
0.0061        2.37619e-06   9.64567e-16   5.58092e-28   5.78192e-42   3.86898e-57   3.41172e-73   6.12686e-90  
0.0062        2.7732e-06    1.40425e-15   1.00326e-27   1.25681e-41   9.99754e-57   1.03498e-72   2.16231e-89  
0.0063        3.22442e-06   2.02912e-15   1.78558e-27   2.69939e-41   2.5482e-56    3.09185e-72   7.50264e-89  
0.0064        3.73553e-06   2.91091e-15   3.14726e-27   5.73107e-41   6.40966e-56   9.10112e-72   2.56119e-88  
0.0065        4.31261e-06   4.14666e-15   5.49535e-27   1.20315e-40   1.59171e-55   2.64093e-71   8.60657e-88  
0.0066        4.96212e-06   5.86684e-15   9.50767e-27   2.49831e-40   3.90362e-55   7.55746e-71   2.84819e-87  
0.0067        5.69095e-06   8.24574e-15   1.63031e-26   5.13254e-40   9.45767e-55   2.13355e-70   9.28609e-87  
0.0068        6.5064e-06    1.15148e-14   2.7713e-26    1.0435e-39    2.26433e-54   5.94408e-70   2.98387e-86  
0.0069        7.4162e-06    1.59793e-14   4.67095e-26   2.10005e-39   5.35864e-54   1.63476e-69   9.45285e-86  
0.007         8.42852e-06   2.204e-14     7.80775e-26   4.18458e-39   1.25385e-53   4.43957e-69   2.95341e-85  
0.0071        9.55194e-06   3.02196e-14   1.29459e-25   8.25764e-39   2.9015e-53    1.19088e-68   9.10333e-85  
0.0072        1.07955e-05   4.11961e-14   2.12964e-25   1.61412e-38   6.64191e-53   3.15614e-68   2.76901e-84  
0.0073        1.21687e-05   5.58446e-14   3.47641e-25   3.12597e-38   1.50438e-52   8.26642e-68   8.31421e-84  
0.0074        1.36815e-05   7.52883e-14   5.63226e-25   5.99915e-38   3.37225e-52   2.14024e-67   2.46498e-83  
0.0075        1.53442e-05   1.00962e-13   9.05809e-25   1.14114e-37   7.48292e-52   5.47896e-67   7.21802e-83  
0.0076        1.71677e-05   1.34687e-13   1.44632e-24   2.15184e-37   1.64401e-51   1.38716e-66   2.08808e-82  
0.0077        1.91632e-05   1.78771e-13   2.29318e-24   4.02335e-37   3.57694e-51   3.47412e-66   5.96915e-82  
0.0078        2.13424e-05   2.36115e-13   3.61098e-24   7.46015e-37   7.70861e-51   8.60895e-66   1.68662e-81  
0.0079        2.37176e-05   3.10354e-13   5.64794e-24   1.37204e-36   1.64582e-50   2.11123e-65   4.71155e-81  
0.008         2.63012e-05   4.06025e-13   8.77605e-24   2.50331e-36   3.48188e-50   5.12496e-65   1.30152e-80  
0.0081        2.91062e-05   5.2876e-13    1.35492e-23   4.53172e-36   7.3004e-50    1.23169e-64   3.5561e-80   
0.0082        3.21462e-05   6.85527e-13   2.0787e-23    8.14108e-36   1.51725e-49   2.93124e-64   9.61224e-80  
0.0083        3.5435e-05    8.84906e-13   3.16952e-23   1.45156e-35   3.12622e-49   6.90914e-64   2.57095e-79  
0.0084        3.89869e-05   1.13742e-12   4.80369e-23   2.56916e-35   6.38713e-49   1.61323e-63   6.80561e-79  
0.0085        4.28143e-05   1.45509e-12   7.22102e-23   4.48947e-35   1.28072e-48   3.66987e-63   1.74015e-78  
0.0086        4.69343e-05   1.85404e-12   1.0794e-22    7.79261e-35   2.54883e-48   8.28073e-63   4.41103e-78  
0.0087        5.13623e-05   2.35313e-12   1.60463e-22   1.34371e-34   5.0352e-48    1.85356e-62   1.10863e-77  
0.0088        5.61141e-05   2.97517e-12   2.37258e-22   2.30204e-34   9.87497e-48   4.11643e-62   2.76303e-77  
0.0089        6.12061e-05   3.7476e-12    3.48954e-22   3.9188e-34    1.92286e-47   9.07108e-62   6.82942e-77  
0.009         6.66546e-05   4.70334e-12   5.10574e-22   6.62939e-34   3.71791e-47   1.98368e-61   1.67429e-76  
0.0091        7.24766e-05   5.88178e-12   7.43251e-22   1.1146e-33    7.13897e-47   4.30528e-61   4.07167e-76  
0.0092        7.86893e-05   7.32982e-12   1.07656e-21   1.86265e-33   1.36146e-46   9.27461e-61   9.82325e-76  
0.0093        8.53103e-05   9.10319e-12   1.55172e-21   3.09426e-33   2.57896e-46   1.98335e-60   2.35138e-75  
0.0094        9.23574e-05   1.12679e-11   2.22583e-21   5.11016e-33   4.85294e-46   4.2107e-60    5.58493e-75  
0.0095        9.98488e-05   1.39018e-11   3.17773e-21   8.39086e-33   9.07244e-46   8.87573e-60   1.31639e-74  
0.0096        0.000107803   1.70967e-11   4.51571e-21   1.36998e-32   1.68517e-45   1.85777e-59   3.07943e-74  
0.0097        0.000116238   2.09601e-11   6.38785e-21   2.22431e-32   3.11034e-45   3.86152e-59   7.15008e-74  
0.0098        0.000125174   2.56179e-11   8.99579e-21   3.59163e-32   5.70497e-45   7.97159e-59   1.64798e-73  
0.0099        0.000134629   3.12171e-11   1.26129e-20   5.76816e-32   1.03997e-44   1.63453e-58   3.77081e-73  
0.01          0.000144623   3.79286e-11   1.76082e-20   9.21452e-32   1.8843e-44    3.3292e-58    8.5664e-73   
0.0101        0.000155176   4.59508e-11   2.44779e-20   1.46431e-31   3.39372e-44   6.7364e-58    1.93235e-72  
0.0102        0.000166307   5.55135e-11   3.38864e-20   2.31502e-31   6.07632e-44   1.35423e-57   4.32845e-72  
0.0103        0.000178036   6.68819e-11   4.67197e-20   3.64143e-31   1.08163e-43   2.70505e-57   9.62899e-72  
0.0104        0.000190384   8.03612e-11   6.41548e-20   5.69927e-31   1.91436e-43   5.36922e-57   2.12749e-71  
0.0105        0.000203371   9.63025e-11   8.77493e-20   8.87629e-31   3.36911e-43   1.0591e-56    4.66908e-71  
0.0106        0.000217017   1.15108e-10   1.19557e-19   1.37575e-30   5.89638e-43   2.07629e-56   1.01791e-70  
0.0107        0.000231343   1.37237e-10   1.62274e-19   2.12217e-30   1.02629e-42   4.04577e-56   2.20463e-70  
0.0108        0.00024637    1.63214e-10   2.1943e-19    3.25823e-30   1.77665e-42   7.8363e-56    4.74403e-70  
0.0109        0.000262118   1.93637e-10   2.95627e-19   4.97938e-30   3.05925e-42   1.50887e-55   1.01433e-69  
0.011         0.000278608   2.29183e-10   3.96846e-19   7.57516e-30   5.2401e-42    2.88839e-55   2.15511e-69  
0.0111        0.000295862   2.70621e-10   5.30828e-19   1.14726e-29   8.92914e-42   5.49739e-55   4.55039e-69  
0.0112        0.0003139     3.1882e-10    7.07568e-19   1.72988e-29   1.51375e-41   1.04037e-54   9.54883e-69  
0.0113        0.000332743   3.7476e-10    9.39917e-19   2.59704e-29   2.55333e-41   1.95785e-54   1.99163e-68  
0.0114        0.000352413   4.39547e-10   1.24435e-18   3.88225e-29   4.28544e-41   3.66409e-54   4.12909e-68  
0.0115        0.000372931   5.1442e-10    1.64193e-18   5.77903e-29   7.15731e-41   6.81985e-54   8.50984e-68  
0.0116        0.000394317   6.00774e-10   2.15946e-18   8.56685e-29   1.1896e-40    1.26252e-53   1.74357e-67  
0.0117        0.000416594   7.00168e-10   2.831e-18     1.26476e-28   1.96776e-40   2.32479e-53   3.55173e-67  
0.0118        0.000439781   8.14344e-10   3.69967e-18   1.8597e-28    3.23964e-40   4.25838e-53   7.19373e-67  
0.0119        0.0004639     9.45248e-10   4.81987e-18   2.72365e-28   5.30885e-40   7.75972e-53   1.44881e-66  
0.012         0.000488972   1.09504e-09   6.26008e-18   3.97335e-28   8.65984e-40   1.40675e-52   2.90161e-66  
0.0121        0.000515019   1.26614e-09   8.10621e-18   5.77412e-28   1.40622e-39   2.53739e-52   5.77919e-66  
0.0122        0.000542061   1.4612e-09    1.04657e-17   8.35913e-28   2.27328e-39   4.5539e-52    1.14479e-65  
0.0123        0.000570118   1.6832e-09    1.34728e-17   1.20561e-27   3.6588e-39    8.13262e-52   2.25549e-65  
0.0124        0.000599212   1.9354e-09    1.72942e-17   1.7324e-27    5.86318e-39   1.44529e-51   4.42018e-65  
0.0125        0.000629364   2.22141e-09   2.21371e-17   2.48031e-27   9.3554e-39    2.55615e-51   8.61691e-65  
0.0126        0.000660593   2.54523e-09   2.82575e-17   3.53838e-27   1.48645e-38   4.49933e-51   1.6711e-64   
0.0127        0.000692921   2.91124e-09   3.59718e-17   5.02994e-27   2.35191e-38   7.88251e-51   3.22415e-64  
0.0128        0.000726367   3.32425e-09   4.56691e-17   7.12533e-27   3.70592e-38   1.37455e-50   6.18899e-64  
0.0129        0.000760952   3.78957e-09   5.78274e-17   1.00589e-26   5.81568e-38   2.38596e-50   1.18206e-63  
0.013         0.000796696   4.31298e-09   7.30322e-17   1.41522e-26   9.08986e-38   4.12281e-50   2.24647e-63  
0.0131        0.00083362    4.90084e-09   9.19985e-17   1.98445e-26   1.4151e-37    7.0921e-50    4.2484e-63   
0.0132        0.000871741   5.56007e-09   1.15598e-16   2.77348e-26   2.19439e-37   1.2146e-49    7.99541e-63  
0.0133        0.000911081   6.29825e-09   1.44891e-16   3.86362e-26   3.38968e-37   2.07104e-49   1.49751e-62  
0.0134        0.000951659   7.1236e-09    1.81163e-16   5.36499e-26   5.21604e-37   3.51612e-49   2.79147e-62  
0.0135        0.000993494   8.04512e-09   2.25971e-16   7.42622e-26   7.99619e-37   5.94406e-49   5.17914e-62  
0.0136        0.0010366     9.07253e-09   2.81192e-16   1.02473e-25   1.22125e-36   1.00061e-48   9.56455e-62  
0.0137        0.00108101    1.02164e-08   3.4909e-16    1.40965e-25   1.85835e-36   1.6774e-48    1.75823e-61  
0.0138        0.00112673    1.14883e-08   4.32388e-16   1.93328e-25   2.81754e-36   2.80035e-48   3.21747e-61  
0.0139        0.00117378    1.29006e-08   5.34348e-16   2.64346e-25   4.2565e-36    4.65604e-48   5.86141e-61  
0.014         0.00122218    1.44666e-08   6.58877e-16   3.60386e-25   6.40757e-36   7.71027e-48   1.06306e-60  
0.0141        0.00127195    1.6201e-08    8.10642e-16   4.89884e-25   9.61196e-36   1.27172e-47   1.91959e-60  
0.0142        0.00132311    1.81194e-08   9.95204e-16   6.63999e-25   1.4369e-35    2.08929e-47   3.45119e-60  
0.0143        0.00137567    2.02386e-08   1.21918e-15   8.97442e-25   2.1407e-35    3.41913e-47   6.17819e-60  
0.0144        0.00142965    2.25768e-08   1.49042e-15   1.20956e-24   3.17847e-35   5.5739e-47    1.1013e-59   
0.0145        0.00148507    2.51536e-08   1.81823e-15   1.62572e-24   4.7036e-35    9.05208e-47   1.9549e-59   
0.0146        0.00154194    2.79898e-08   2.21362e-15   2.17909e-24   6.93762e-35   1.46454e-46   3.45568e-59  
0.0147        0.00160029    3.1108e-08    2.68956e-15   2.91297e-24   1.01994e-34   2.36069e-46   6.08352e-59  
0.0148        0.00166012    3.45323e-08   3.26135e-15   3.88364e-24   1.49465e-34   3.79119e-46   1.06661e-58  
0.0149        0.00172146    3.82885e-08   3.94696e-15   5.16417e-24   2.18336e-34   6.0664e-46    1.86254e-58  
0.015         0.00178432    4.24041e-08   4.76751e-15   6.84914e-24   3.17939e-34   9.67215e-46   3.23947e-58  
0.0151        0.00184871    4.69088e-08   5.74771e-15   9.06064e-24   4.61545e-34   1.53663e-45   5.61211e-58  
0.0152        0.00191466    5.18339e-08   6.91647e-15   1.1956e-23    6.6796e-34    2.43267e-45   9.68463e-58  
0.0153        0.00198217    5.7213e-08    8.30752e-15   1.57371e-23   9.6376e-34    3.83784e-45   1.6648e-57   
0.0154        0.00205127    6.30819e-08   9.96018e-15   2.06631e-23   1.38639e-33   6.03383e-45   2.85087e-57  
0.0155        0.00212196    6.94787e-08   1.19202e-14   2.70651e-23   1.98844e-33   9.45408e-45   4.86351e-57  
0.0156        0.00219426    7.64438e-08   1.42407e-14   3.53656e-23   2.84361e-33   1.47632e-44   8.26599e-57  
0.0157        0.00226819    8.40201e-08   1.69832e-14   4.61021e-23   4.05479e-33   2.29771e-44   1.39968e-56  
0.0158        0.00234376    9.22535e-08   2.0219e-14    5.99575e-23   5.76531e-33   3.56433e-44   2.3614e-56   
0.0159        0.00242097    1.01192e-07   2.40305e-14   7.77967e-23   8.17426e-33   5.51115e-44   3.96947e-56  
0.016         0.00249986    1.10887e-07   2.85127e-14   1.00713e-22   1.15574e-32   8.49385e-44   6.64864e-56  
0.0161        0.00258042    1.21394e-07   3.37751e-14   1.30086e-22   1.62955e-32   1.30491e-43   1.10965e-55  
0.0162        0.00266267    1.32768e-07   3.99436e-14   1.67652e-22   2.29134e-32   1.9984e-43    1.84549e-55  
0.0163        0.00274663    1.45072e-07   4.71628e-14   2.1559e-22    3.2132e-32    3.05089e-43   3.05859e-55  
0.0164        0.0028323     1.58369e-07   5.55986e-14   2.76634e-22   4.4939e-32    4.64331e-43   5.05161e-55  
0.0165        0.0029197     1.72727e-07   6.54408e-14   3.542e-22     6.26847e-32   7.04529e-43   8.31484e-55  
0.0166        0.00300884    1.88217e-07   7.69065e-14   4.52554e-22   8.72096e-32   1.06575e-42   1.36398e-54  
0.0167        0.00309974    2.04914e-07   9.02436e-14   5.77007e-22   1.21016e-31   1.60734e-42   2.23e-54     
0.0168        0.00319239    2.22899e-07   1.05735e-13   7.34162e-22   1.675e-31     2.41698e-42   3.63381e-54  
0.0169        0.00328682    2.42253e-07   1.23701e-13   9.32211e-22   2.31252e-31   3.62379e-42   5.9019e-54   
0.017         0.00338303    2.63064e-07   1.4451e-13    1.18129e-21   3.18472e-31   5.41739e-42   9.5545e-54   
0.0171        0.00348104    2.85425e-07   1.68575e-13   1.49394e-21   4.37505e-31   8.07549e-42   1.54179e-53  
0.0172        0.00358085    3.09431e-07   1.96367e-13   1.88562e-21   5.9956e-31    1.20036e-41   2.48002e-53  
0.0173        0.00368247    3.35185e-07   2.28421e-13   2.37533e-21   8.19656e-31   1.77922e-41   3.97661e-53  
0.0174        0.00378592    3.62793e-07   2.65338e-13   2.98648e-21   1.11787e-30   2.62989e-41   6.35642e-53  
0.0175        0.0038912     3.92365e-07   3.07799e-13   3.74771e-21   1.52098e-30   3.87656e-41   1.0129e-52   
0.0176        0.00399832    4.24018e-07   3.56574e-13   4.69412e-21   2.0646e-30    5.69859e-41   1.60911e-52  
0.0177        0.0041073     4.57875e-07   4.12527e-13   5.86861e-21   2.79605e-30   8.35438e-41   2.54849e-52  
0.0178        0.00421813    4.94062e-07   4.76631e-13   7.32346e-21   3.77797e-30   1.22151e-40   4.02416e-52  
0.0179        0.00433083    5.32713e-07   5.49982e-13   9.12239e-21   5.09315e-30   1.78127e-40   6.33534e-52  
0.018         0.00444541    5.73966e-07   6.33806e-13   1.13428e-20   6.85079e-30   2.59073e-40   9.94449e-52  
0.0181        0.00456187    6.17968e-07   7.29481e-13   1.40786e-20   9.19457e-30   3.75824e-40   1.55641e-51  
0.0182        0.00468022    6.64869e-07   8.38548e-13   1.74437e-20   1.23131e-29   5.43788e-40   2.42887e-51  
0.0183        0.00480047    7.14826e-07   9.62732e-13   2.15755e-20   1.64536e-29   7.84818e-40   3.77954e-51  
0.0184        0.00492262    7.68006e-07   1.10396e-12   2.66403e-20   2.19392e-29   1.12983e-39   5.86459e-51  
0.0185        0.00504669    8.24578e-07   1.26438e-12   3.28382e-20   2.91915e-29   1.62245e-39   9.07426e-51  
0.0186        0.00517267    8.8472e-07    1.44639e-12   4.04103e-20   3.87594e-29   2.3241e-39    1.40014e-50  
0.0187        0.00530058    9.48619e-07   1.65265e-12   4.96461e-20   5.13563e-29   3.32104e-39   2.15442e-50  
0.0188        0.00543042    1.01647e-06   1.88615e-12   6.08926e-20   6.7907e-29    4.73414e-39   3.30597e-50  
0.0189        0.0055622     1.08846e-06   2.15016e-12   7.45659e-20   8.96085e-29   6.73231e-39   5.05927e-50  
0.019         0.00569591    1.16481e-06   2.44835e-12   9.11632e-20   1.18007e-28   9.5511e-39    7.72159e-50  
0.0191        0.00583158    1.24574e-06   2.78479e-12   1.11278e-19   1.55095e-28   1.35182e-38   1.17535e-49  
0.0192        0.0059692     1.33145e-06   3.16395e-12   1.35619e-19   2.03436e-28   1.90885e-38   1.78435e-49  
0.0193        0.00610877    1.4222e-06    3.59083e-12   1.65027e-19   2.66322e-28   2.68919e-38   2.70182e-49  
0.0194        0.0062503     1.51821e-06   4.0709e-12    2.00505e-19   3.47973e-28   3.77986e-38   4.08042e-49  
0.0195        0.00639381    1.61974e-06   4.61024e-12   2.43241e-19   4.53785e-28   5.30085e-38   6.14661e-49  
0.0196        0.00653928    1.72704e-06   5.21555e-12   2.94644e-19   5.90651e-28   7.41719e-38   9.23549e-49  
0.0197        0.00668672    1.84038e-06   5.89421e-12   3.5638e-19    7.67352e-28   1.03554e-37   1.38416e-48  
0.0198        0.00683615    1.96003e-06   6.65433e-12   4.30419e-19   9.95062e-28   1.44257e-37   2.06932e-48  
0.0199        0.00698755    2.08628e-06   7.50486e-12   5.19085e-19   1.28797e-27   2.00521e-37   3.08595e-48  
0.02          0.00714094    2.21943e-06   8.45561e-12   6.25119e-19   1.66406e-27   2.78126e-37   4.59074e-48  
0.0201        0.00729632    2.35977e-06   9.51738e-12   7.51744e-19   2.14609e-27   3.8494e-37    6.81268e-48  
0.0202        0.00745369    2.50762e-06   1.0702e-11    9.02748e-19   2.7628e-27    5.31646e-37   1.00856e-47  
0.0203        0.00761305    2.6633e-06    1.20224e-11   1.08258e-18   3.55045e-27   7.32721e-37   1.48953e-47  
0.0204        0.00777441    2.82715e-06   1.34928e-11   1.29645e-18   4.55466e-27   1.00774e-36   2.19464e-47  
0.0205        0.00793776    2.99951e-06   1.51287e-11   1.55046e-18   5.83276e-27   1.38313e-36   3.22594e-47  
0.0206        0.00810312    3.18073e-06   1.69471e-11   1.85174e-18   7.45669e-27   1.89448e-36   4.73081e-47  
0.0207        0.00827047    3.37119e-06   1.89666e-11   2.20862e-18   9.51655e-27   2.58961e-36   6.92167e-47  
0.0208        0.00843983    3.57124e-06   2.12074e-11   2.63082e-18   1.2125e-26    3.53271e-36   1.01039e-46  
0.0209        0.0086112     3.78129e-06   2.36915e-11   3.12964e-18   1.54226e-26   4.80969e-36   1.47157e-46  
0.021         0.00878457    4.00173e-06   2.64429e-11   3.71823e-18   1.95846e-26   6.53535e-36   2.13843e-46  
0.0211        0.00895995    4.23296e-06   2.94879e-11   4.41189e-18   2.48292e-26   8.86282e-36   3.10055e-46  
0.0212        0.00913734    4.4754e-06    3.28549e-11   5.22834e-18   3.14273e-26   1.19959e-35   4.4856e-46   
0.0213        0.00931674    4.7295e-06    3.65747e-11   6.18813e-18   3.97149e-26   1.62055e-35   6.47513e-46  
0.0214        0.00949815    4.99569e-06   4.06811e-11   7.31507e-18   5.01083e-26   2.18507e-35   9.32675e-46  
0.0215        0.00968157    5.27442e-06   4.52103e-11   8.63664e-18   6.31222e-26   2.94068e-35   1.34052e-45  
0.0216        0.00986699    5.56616e-06   5.0202e-11    1.01846e-17   7.93921e-26   3.95021e-35   1.9226e-45   
0.0217        0.0100544     5.8714e-06    5.56989e-11   1.19957e-17   9.97013e-26   5.29649e-35   2.75158e-45  
0.0218        0.0102439     6.19062e-06   6.17474e-11   1.4112e-17    1.25014e-25   7.08857e-35   3.92972e-45  
0.0219        0.0104353     6.52433e-06   6.83976e-11   1.65822e-17   1.56517e-25   9.46977e-35   5.60059e-45  
0.022         0.0106288     6.87304e-06   7.57036e-11   1.94621e-17   1.95663e-25   1.26281e-34   7.96539e-45  
0.0221        0.0108243     7.23728e-06   8.37241e-11   2.28159e-17   2.44238e-25   1.68097e-34   1.13055e-44  
0.0222        0.0110218     7.61759e-06   9.25222e-11   2.67171e-17   3.04421e-25   2.23363e-34   1.60135e-44  
0.0223        0.0112213     8.01453e-06   1.02166e-10   3.12502e-17   3.78882e-25   2.96279e-34   2.26365e-44  
0.0224        0.0114228     8.42866e-06   1.12729e-10   3.65115e-17   4.70874e-25   3.92314e-34   3.19345e-44  
0.0225        0.0116263     8.86056e-06   1.24291e-10   4.26115e-17   5.84364e-25   5.18583e-34   4.49625e-44  
0.0226        0.0118318     9.31083e-06   1.36936e-10   4.96763e-17   7.24178e-25   6.8432e-34    6.31808e-44  
0.0227        0.0120393     9.78007e-06   1.50756e-10   5.78496e-17   8.96182e-25   9.01496e-34   8.86077e-44  
0.0228        0.0122488     1.02689e-05   1.65851e-10   6.72954e-17   1.1075e-24    1.1856e-33    1.24027e-43  
0.0229        0.0124604     1.0778e-05    1.82324e-10   7.82004e-17   1.36675e-24   1.55664e-33   1.73272e-43  
0.023         0.0126739     1.13079e-05   2.00291e-10   9.0777e-17    1.68438e-24   2.04043e-33   2.41608e-43  
0.0231        0.0128894     1.18594e-05   2.19874e-10   1.05267e-16   2.07302e-24   2.6702e-33    3.36258e-43  
0.0232        0.0131069     1.2433e-05    2.41202e-10   1.21943e-16   2.54791e-24   3.48867e-33   4.67112e-43  
0.0233        0.0133264     1.30296e-05   2.64416e-10   1.41117e-16   3.12742e-24   4.55068e-33   6.47681e-43  
0.0234        0.0135479     1.36497e-05   2.89666e-10   1.63141e-16   3.83368e-24   5.92652e-33   8.96397e-43  
0.0235        0.0137713     1.42942e-05   3.17113e-10   1.88414e-16   4.6933e-24    7.70611e-33   1.23835e-42  
0.0236        0.0139968     1.49637e-05   3.46928e-10   2.17386e-16   5.73822e-24   1.00044e-32   1.70766e-42  
0.0237        0.0142242     1.5659e-05    3.79294e-10   2.50566e-16   7.00679e-24   1.29678e-32   2.35058e-42  
0.0238        0.0144536     1.63808e-05   4.14409e-10   2.88531e-16   8.54493e-24   1.67832e-32   3.22978e-42  
0.0239        0.014685      1.713e-05     4.5248e-10    3.31927e-16   1.04076e-23   2.16879e-32   4.42997e-42  
0.024         0.0149184     1.79072e-05   4.93732e-10   3.81487e-16   1.26605e-23   2.79834e-32   6.06549e-42  
0.0241        0.0151537     1.87133e-05   5.38403e-10   4.38032e-16   1.53819e-23   3.60521e-32   8.29034e-42  
0.0242        0.015391      1.95491e-05   5.86746e-10   5.02488e-16   1.86655e-23   4.6378e-32    1.13117e-41  
0.0243        0.0156303     2.04155e-05   6.39031e-10   5.75895e-16   2.26224e-23   5.95731e-32   1.54077e-41  
0.0244        0.0158715     2.13133e-05   6.95548e-10   6.5942e-16    2.73852e-23   7.64102e-32   2.09511e-41  
0.0245        0.0161147     2.22432e-05   7.56601e-10   7.54372e-16   3.31111e-23   9.78633e-32   2.84409e-41  
0.0246        0.0163598     2.32063e-05   8.22517e-10   8.62221e-16   3.99868e-23   1.25159e-31   3.85434e-41  
0.0247        0.0166069     2.42034e-05   8.93641e-10   9.84608e-16   4.82336e-23   1.59838e-31   5.21476e-41  
0.0248        0.0168559     2.52354e-05   9.70342e-10   1.12337e-15   5.81135e-23   2.03837e-31   7.04371e-41  
0.0249        0.0171069     2.63031e-05   1.05301e-09   1.28058e-15   6.99364e-23   2.59582e-31   9.49855e-41  
0.025         0.0173597     2.74076e-05   1.14206e-09   1.45851e-15   8.40684e-23   3.3011e-31    1.27881e-40  
0.0251        0.0176146     2.85498e-05   1.23793e-09   1.65974e-15   1.00942e-22   4.19219e-31   1.71892e-40  
0.0252        0.0178713     2.97306e-05   1.34108e-09   1.88713e-15   1.21065e-22   5.31651e-31   2.3068e-40   
0.0253        0.01813       3.0951e-05    1.45201e-09   2.14386e-15   1.45039e-22   6.73317e-31   3.09082e-40  
0.0254        0.0183906     3.22119e-05   1.57125e-09   2.43348e-15   1.73568e-22   8.51579e-31   4.13478e-40  
0.0255        0.0186531     3.35145e-05   1.69934e-09   2.75995e-15   2.07481e-22   1.07559e-30   5.5227e-40   
0.0256        0.0189175     3.48596e-05   1.83686e-09   3.12764e-15   2.47751e-22   1.35673e-30   7.36507e-40  
0.0257        0.0191839     3.62484e-05   1.98445e-09   3.54144e-15   2.9552e-22    1.70909e-30   9.80693e-40  
0.0258        0.0194521     3.76818e-05   2.14275e-09   4.00676e-15   3.52122e-22   2.15014e-30   1.30384e-39  
0.0259        0.0197222     3.9161e-05    2.31245e-09   4.5296e-15    4.19121e-22   2.7015e-30    1.73084e-39  
0.026         0.0199942     4.06869e-05   2.49428e-09   5.11662e-15   4.98346e-22   3.38988e-30   2.29423e-39  
0.0261        0.0202681     4.22607e-05   2.68901e-09   5.77519e-15   5.9193e-22    4.24822e-30   3.03645e-39  
0.0262        0.0205439     4.38834e-05   2.89746e-09   6.51346e-15   7.02362e-22   5.31716e-30   4.01283e-39  
0.0263        0.0208216     4.55563e-05   3.12047e-09   7.34046e-15   8.32545e-22   6.64669e-30   5.29537e-39  
0.0264        0.0211011     4.72803e-05   3.35896e-09   8.26615e-15   9.85856e-22   8.2983e-30    6.97762e-39  