/*--------------------------------*- C++ -*----------------------------------*\
  =========                 |
  \\      /  F ield         | OpenFOAM: The Open Source CFD Toolbox
   \\    /   O peration     | Website:  https://openfoam.org
    \\  /    A nd           | Version:  dev
     \\/     M anipulation  |
\*---------------------------------------------------------------------------*/
FoamFile
{
    format      ascii;
    class       volScalarField;
    location    "0.16";
    object      beta;
}
// * * * * * * * * * * * * * * * * * * * * * * * * * * * * * * * * * * * * * //

dimensions      [0 0 0 0 0 0 0];

internalField   uniform 0;

boundaryField
{
    frontAndBack
    {
        type            empty;
    }
    inlet
    {
        type            calculated;
        value           uniform 0;
    }
    outlet
    {
        type            calculated;
        value           uniform 0;
    }
    substrate
    {
        type            calculated;
        value           nonuniform List<scalar> 
400
(
0.00276674
0.00290788
0.00301208
0.00310773
0.00319897
0.00328617
0.00337033
0.00345234
0.00353283
0.00361227
0.003691
0.00376929
0.00384733
0.0039253
0.0040033
0.00408144
0.00415976
0.00423832
0.00431713
0.00439622
0.00447558
0.00455521
0.00463509
0.0047152
0.00479551
0.004876
0.00495663
0.00503737
0.00511818
0.00519901
0.00527984
0.00536062
0.00544131
0.00552186
0.00560223
0.00568239
0.00576229
0.00584189
0.00592114
0.00600001
0.00607845
0.00615644
0.00623392
0.00631087
0.00638724
0.00646301
0.00653813
0.00661258
0.00668632
0.00675933
0.00683157
0.00690302
0.00697366
0.00704345
0.00711238
0.00718043
0.00724757
0.00731379
0.00737907
0.00744339
0.00750675
0.00756912
0.00763051
0.00769089
0.00775026
0.00780861
0.00786594
0.00792224
0.00797752
0.00803175
0.00808496
0.00813713
0.00818827
0.00823838
0.00828746
0.00833552
0.00838256
0.00842859
0.00847362
0.00851764
0.00856068
0.00860274
0.00864383
0.00868396
0.00872313
0.00876137
0.00879868
0.00883507
0.00887057
0.00890517
0.00893889
0.00897176
0.00900377
0.00903494
0.0090653
0.00909485
0.0091236
0.00915158
0.00917879
0.00920525
0.00923098
0.00925599
0.0092803
0.00930391
0.00932685
0.00934913
0.00937076
0.00939176
0.00941215
0.00943193
0.00945112
0.00946973
0.00948779
0.0095053
0.00952227
0.00953873
0.00955467
0.00957012
0.00958509
0.00959959
0.00961364
0.00962724
0.0096404
0.00965315
0.00966549
0.00967743
0.00968898
0.00970015
0.00971096
0.00972142
0.00973153
0.0097413
0.00975075
0.00975989
0.00976871
0.00977724
0.00978549
0.00979345
0.00980114
0.00980857
0.00981574
0.00982266
0.00982935
0.0098358
0.00984203
0.00984804
0.00985384
0.00985944
0.00986484
0.00987004
0.00987507
0.00987991
0.00988458
0.00988908
0.00989341
0.0098976
0.00990163
0.00990551
0.00990925
0.00991285
0.00991632
0.00991967
0.00992288
0.00992598
0.00992897
0.00993184
0.0099346
0.00993726
0.00993982
0.00994229
0.00994466
0.00994694
0.00994913
0.00995123
0.00995326
0.00995521
0.00995708
0.00995888
0.00996061
0.00996227
0.00996387
0.0099654
0.00996688
0.00996829
0.00996965
0.00997096
0.00997221
0.00997341
0.00997456
0.00997567
0.00997673
0.00997775
0.00997873
0.00997967
0.00998057
0.00998143
0.00998225
0.00998304
0.0099838
0.00998453
0.00998523
0.0099859
0.00998653
0.00998715
0.00998773
0.00998829
0.00998883
0.00998935
0.00998984
0.00999031
0.00999076
0.00999119
0.0099916
0.009992
0.00999237
0.00999273
0.00999308
0.00999341
0.00999372
0.00999402
0.00999431
0.00999458
0.00999484
0.00999509
0.00999533
0.00999556
0.00999578
0.00999598
0.00999618
0.00999637
0.00999655
0.00999672
0.00999689
0.00999704
0.00999719
0.00999733
0.00999747
0.00999759
0.00999772
0.00999783
0.00999794
0.00999805
0.00999815
0.00999825
0.00999834
0.00999842
0.0099985
0.00999858
0.00999866
0.00999873
0.0099988
0.00999886
0.00999892
0.00999898
0.00999903
0.00999908
0.00999913
0.00999918
0.00999922
0.00999927
0.00999931
0.00999934
0.00999938
0.00999941
0.00999945
0.00999948
0.00999951
0.00999953
0.00999956
0.00999958
0.00999961
0.00999963
0.00999965
0.00999967
0.00999969
0.00999971
0.00999972
0.00999974
0.00999976
0.00999977
0.00999978
0.0099998
0.00999981
0.00999982
0.00999983
0.00999984
0.00999985
0.00999986
0.00999987
0.00999987
0.00999988
0.00999989
0.0099999
0.0099999
0.00999991
0.00999991
0.00999992
0.00999992
0.00999993
0.00999993
0.00999994
0.00999994
0.00999994
0.00999995
0.00999995
0.00999995
0.00999996
0.00999996
0.00999996
0.00999996
0.00999997
0.00999997
0.00999997
0.00999997
0.00999997
0.00999998
0.00999998
0.00999998
0.00999998
0.00999998
0.00999998
0.00999998
0.00999999
0.00999999
0.00999999
0.00999999
0.00999999
0.00999999
0.00999999
0.00999999
0.00999999
0.00999999
0.00999999
0.00999999
0.00999999
0.00999999
0.00999999
0.00999999
0.01
0.01
0.01
0.01
0.01
0.01
0.01
0.01
0.01
0.01
0.01
0.01
0.01
0.01
0.01
0.01
0.01
0.01
0.01
0.01
0.01
0.01
0.01
0.01
0.01
0.01
0.01
0.01
0.01
0.01
0.01
0.01
0.01
0.01
0.01
0.01
0.01
0.01
0.01
0.01
0.01
0.01
0.01
0.01
0.01
0.01
0.01
0.01
0.01
0.01
0.01
0.01
0.01
0.01
0.01
0.01
0.01
0.01
0.01
0.01
0.01
0.01
)
;
    }
    Wall
    {
        type            calculated;
        value           nonuniform List<scalar> 
400
(
0.00276674
0.00290788
0.00301207
0.00310772
0.00319897
0.00328618
0.00337034
0.00345236
0.00353286
0.0036123
0.00369103
0.00376931
0.00384736
0.00392532
0.00400333
0.00408146
0.00415978
0.00423833
0.00431715
0.00439623
0.00447559
0.00455522
0.00463509
0.0047152
0.00479551
0.004876
0.00495663
0.00503736
0.00511817
0.005199
0.00527983
0.0053606
0.00544129
0.00552184
0.00560221
0.00568237
0.00576226
0.00584186
0.00592111
0.00599998
0.00607842
0.0061564
0.00623389
0.00631083
0.0063872
0.00646297
0.00653809
0.00661254
0.00668628
0.00675928
0.00683153
0.00690298
0.00697361
0.00704341
0.00711234
0.00718038
0.00724752
0.00731374
0.00737902
0.00744335
0.0075067
0.00756908
0.00763046
0.00769084
0.00775021
0.00780856
0.00786589
0.0079222
0.00797747
0.00803171
0.00808491
0.00813708
0.00818822
0.00823833
0.00828741
0.00833547
0.00838252
0.00842855
0.00847357
0.0085176
0.00856064
0.0086027
0.00864379
0.00868391
0.00872309
0.00876133
0.00879864
0.00883504
0.00887053
0.00890513
0.00893886
0.00897172
0.00900373
0.00903491
0.00906527
0.00909481
0.00912357
0.00915155
0.00917876
0.00920522
0.00923095
0.00925596
0.00928027
0.00930388
0.00932682
0.0093491
0.00937074
0.00939174
0.00941212
0.0094319
0.00945109
0.00946971
0.00948777
0.00950528
0.00952225
0.0095387
0.00955465
0.0095701
0.00958507
0.00959957
0.00961362
0.00962722
0.00964039
0.00965313
0.00966547
0.00967741
0.00968896
0.00970014
0.00971095
0.0097214
0.00973151
0.00974129
0.00975074
0.00975987
0.0097687
0.00977723
0.00978547
0.00979344
0.00980113
0.00980856
0.00981573
0.00982265
0.00982934
0.00983579
0.00984202
0.00984803
0.00985383
0.00985943
0.00986483
0.00987004
0.00987506
0.0098799
0.00988457
0.00988907
0.00989341
0.00989759
0.00990162
0.0099055
0.00990924
0.00991285
0.00991632
0.00991966
0.00992288
0.00992598
0.00992896
0.00993183
0.0099346
0.00993726
0.00993982
0.00994228
0.00994465
0.00994693
0.00994912
0.00995123
0.00995326
0.00995521
0.00995708
0.00995888
0.00996061
0.00996227
0.00996387
0.0099654
0.00996688
0.00996829
0.00996965
0.00997095
0.00997221
0.00997341
0.00997456
0.00997567
0.00997673
0.00997775
0.00997873
0.00997966
0.00998056
0.00998143
0.00998225
0.00998304
0.0099838
0.00998453
0.00998523
0.00998589
0.00998653
0.00998715
0.00998773
0.00998829
0.00998883
0.00998934
0.00998984
0.00999031
0.00999076
0.00999119
0.0099916
0.009992
0.00999237
0.00999273
0.00999308
0.00999341
0.00999372
0.00999402
0.00999431
0.00999458
0.00999484
0.00999509
0.00999533
0.00999556
0.00999578
0.00999598
0.00999618
0.00999637
0.00999655
0.00999672
0.00999688
0.00999704
0.00999719
0.00999733
0.00999747
0.00999759
0.00999772
0.00999783
0.00999794
0.00999805
0.00999815
0.00999825
0.00999834
0.00999842
0.0099985
0.00999858
0.00999866
0.00999873
0.0099988
0.00999886
0.00999892
0.00999898
0.00999903
0.00999908
0.00999913
0.00999918
0.00999922
0.00999927
0.00999931
0.00999934
0.00999938
0.00999941
0.00999945
0.00999948
0.00999951
0.00999953
0.00999956
0.00999958
0.00999961
0.00999963
0.00999965
0.00999967
0.00999969
0.00999971
0.00999972
0.00999974
0.00999976
0.00999977
0.00999978
0.0099998
0.00999981
0.00999982
0.00999983
0.00999984
0.00999985
0.00999986
0.00999987
0.00999987
0.00999988
0.00999989
0.0099999
0.0099999
0.00999991
0.00999991
0.00999992
0.00999992
0.00999993
0.00999993
0.00999994
0.00999994
0.00999994
0.00999995
0.00999995
0.00999995
0.00999996
0.00999996
0.00999996
0.00999996
0.00999997
0.00999997
0.00999997
0.00999997
0.00999997
0.00999998
0.00999998
0.00999998
0.00999998
0.00999998
0.00999998
0.00999998
0.00999999
0.00999999
0.00999999
0.00999999
0.00999999
0.00999999
0.00999999
0.00999999
0.00999999
0.00999999
0.00999999
0.00999999
0.00999999
0.00999999
0.00999999
0.00999999
0.01
0.01
0.01
0.01
0.01
0.01
0.01
0.01
0.01
0.01
0.01
0.01
0.01
0.01
0.01
0.01
0.01
0.01
0.01
0.01
0.01
0.01
0.01
0.01
0.01
0.01
0.01
0.01
0.01
0.01
0.01
0.01
0.01
0.01
0.01
0.01
0.01
0.01
0.01
0.01
0.01
0.01
0.01
0.01
0.01
0.01
0.01
0.01
0.01
0.01
0.01
0.01
0.01
0.01
0.01
0.01
0.01
0.01
0.01
0.01
0.01
0.01
)
;
    }
}


// ************************************************************************* //
