/*--------------------------------*- C++ -*----------------------------------*\
  =========                 |
  \\      /  F ield         | OpenFOAM: The Open Source CFD Toolbox
   \\    /   O peration     | Website:  https://openfoam.org
    \\  /    A nd           | Version:  dev
     \\/     M anipulation  |
\*---------------------------------------------------------------------------*/
FoamFile
{
    format      ascii;
    class       volScalarField;
    location    "0.16";
    object      Exp1;
}
// * * * * * * * * * * * * * * * * * * * * * * * * * * * * * * * * * * * * * //

dimensions      [0 0 0 0 0 0 0];

internalField   uniform 0;

boundaryField
{
    frontAndBack
    {
        type            empty;
    }
    inlet
    {
        type            calculated;
        value           uniform 0;
    }
    outlet
    {
        type            calculated;
        value           uniform 0;
    }
    substrate
    {
        type            calculated;
        value           nonuniform List<scalar> 
400
(
0.00019775
0.000628746
0.00109947
0.00160515
0.00214303
0.00271165
0.00330918
0.00393363
0.00458293
0.00525495
0.00594745
0.00665806
0.0073843
0.00812357
0.00887318
0.00963036
0.0103923
0.011156
0.0119188
0.0126778
0.0134301
0.0141731
0.0149042
0.0156209
0.0163209
0.0170021
0.0176625
0.0183002
0.0189137
0.0195016
0.0200626
0.0205957
0.0211
0.0215749
0.0220199
0.0224346
0.0228189
0.0231726
0.023496
0.0237892
0.0240525
0.0242863
0.0244912
0.0246677
0.0248164
0.0249381
0.0250335
0.0251034
0.0251485
0.0251699
0.0251682
0.0251447
0.0250998
0.0250345
0.0249497
0.0248464
0.0247254
0.0245876
0.0244338
0.024265
0.024082
0.0238856
0.0236765
0.0234557
0.0232238
0.0229817
0.0227299
0.0224694
0.0222006
0.0219244
0.0216413
0.021352
0.021057
0.020757
0.0204526
0.0201441
0.0198323
0.0195175
0.0192002
0.0188809
0.0185601
0.018238
0.0179153
0.0175921
0.017269
0.0169461
0.0166239
0.0163026
0.0159826
0.0156641
0.0153474
0.0150327
0.0147202
0.0144102
0.0141028
0.0137983
0.0134968
0.0131984
0.0129034
0.0126118
0.0123238
0.0120395
0.011759
0.0114824
0.0112097
0.0109411
0.0106766
0.0104162
0.01016
0.00990814
0.00966052
0.00941721
0.00917822
0.00894358
0.00871328
0.00848733
0.00826572
0.00804844
0.00783549
0.00762684
0.00742247
0.00722236
0.00702647
0.00683476
0.00664722
0.00646379
0.00628443
0.0061091
0.00593776
0.00577035
0.00560682
0.00544712
0.0052912
0.00513901
0.00499048
0.00484556
0.00470419
0.00456632
0.00443188
0.00430082
0.00417307
0.00404857
0.00392727
0.0038091
0.003694
0.00358191
0.00347277
0.00336653
0.00326312
0.00316247
0.00306455
0.00296927
0.0028766
0.00278646
0.0026988
0.00261358
0.00253072
0.00245018
0.0023719
0.00229584
0.00222193
0.00215012
0.00208038
0.00201264
0.00194685
0.00188297
0.00182096
0.00176076
0.00170233
0.00164562
0.0015906
0.00153721
0.00148542
0.00143518
0.00138645
0.00133921
0.00129339
0.00124898
0.00120592
0.00116419
0.00112375
0.00108456
0.00104659
0.00100981
0.000974189
0.000939686
0.000906276
0.000873928
0.000842612
0.0008123
0.000782963
0.000754575
0.000727107
0.000700535
0.000674832
0.000649974
0.000625936
0.000602694
0.000580226
0.000558509
0.000537521
0.000517241
0.000497647
0.000478719
0.000460438
0.000442784
0.000425738
0.000409281
0.000393397
0.000378067
0.000363275
0.000349003
0.000335236
0.000321958
0.000309155
0.00029681
0.00028491
0.00027344
0.000262387
0.000251737
0.000241478
0.000231596
0.00022208
0.000212918
0.000204098
0.000195609
0.000187439
0.000179579
0.000172017
0.000164744
0.00015775
0.000151026
0.000144562
0.00013835
0.00013238
0.000126645
0.000121135
0.000115844
0.000110764
0.000105886
0.000101205
9.67118e-05
9.24011e-05
8.82658e-05
8.42996e-05
8.04964e-05
7.685e-05
7.33549e-05
7.00052e-05
6.67957e-05
6.3721e-05
6.0776e-05
5.7956e-05
5.5256e-05
5.26715e-05
5.01981e-05
4.78315e-05
4.55674e-05
4.3402e-05
4.13312e-05
3.93515e-05
3.74592e-05
3.56507e-05
3.39227e-05
3.22721e-05
3.06956e-05
2.91902e-05
2.7753e-05
2.63813e-05
2.50723e-05
2.38233e-05
2.2632e-05
2.14958e-05
2.04125e-05
1.93799e-05
1.83956e-05
1.74578e-05
1.65643e-05
1.57133e-05
1.49029e-05
1.41314e-05
1.3397e-05
1.26981e-05
1.20332e-05
1.14007e-05
1.07991e-05
1.02272e-05
9.68342e-06
9.16666e-06
8.67563e-06
8.20916e-06
7.7661e-06
7.34539e-06
6.94598e-06
6.56687e-06
6.20712e-06
5.86581e-06
5.54207e-06
5.23507e-06
4.94399e-06
4.66809e-06
4.40662e-06
4.15888e-06
3.92422e-06
3.70198e-06
3.49156e-06
3.29238e-06
3.10387e-06
2.92551e-06
2.75679e-06
2.59722e-06
2.44634e-06
2.30372e-06
2.16892e-06
2.04156e-06
1.92124e-06
1.80761e-06
1.70032e-06
1.59903e-06
1.50344e-06
1.41324e-06
1.32815e-06
1.2479e-06
1.17224e-06
1.10091e-06
1.03368e-06
9.70342e-07
9.10672e-07
8.54476e-07
8.01562e-07
7.51753e-07
7.04875e-07
6.60768e-07
6.19278e-07
5.80258e-07
5.4357e-07
5.09083e-07
4.76673e-07
4.46223e-07
4.17619e-07
3.90758e-07
3.65538e-07
3.41866e-07
3.19652e-07
2.9881e-07
2.79262e-07
2.6093e-07
2.43744e-07
2.27636e-07
2.12542e-07
1.98402e-07
1.85158e-07
1.72757e-07
1.61148e-07
1.50283e-07
1.40118e-07
1.30608e-07
1.21715e-07
1.134e-07
1.05627e-07
9.83639e-08
9.15779e-08
8.52396e-08
7.93209e-08
7.37954e-08
6.86383e-08
6.38264e-08
5.93377e-08
5.51515e-08
5.12487e-08
4.76109e-08
4.42213e-08
4.10637e-08
3.81232e-08
3.53857e-08
3.28382e-08
3.04684e-08
2.82647e-08
2.62165e-08
2.43137e-08
2.25472e-08
2.09083e-08
1.93891e-08
1.79822e-08
1.6681e-08
1.54794e-08
1.43719e-08
1.33536e-08
1.24203e-08
1.15683e-08
1.07946e-08
1.0097e-08
9.47378e-09
8.92405e-09
8.44769e-09
8.04533e-09
7.71836e-09
7.46892e-09
7.2997e-09
7.2137e-09
)
;
    }
    Wall
    {
        type            calculated;
        value           nonuniform List<scalar> 
400
(
0.000197739
0.000628723
0.00109945
0.00160512
0.00214299
0.00271158
0.00330909
0.00393349
0.00458275
0.00525472
0.00594715
0.0066577
0.00738387
0.00812307
0.0088726
0.0096297
0.0103915
0.0111552
0.0119179
0.0126768
0.013429
0.0141719
0.014903
0.0156196
0.0163196
0.0170007
0.0176611
0.0182988
0.0189122
0.0195001
0.020061
0.0205941
0.0210984
0.0215733
0.0220183
0.022433
0.0228172
0.023171
0.0234944
0.0237876
0.0240509
0.0242848
0.0244897
0.0246662
0.024815
0.0249367
0.0250321
0.025102
0.0251473
0.0251686
0.025167
0.0251435
0.0250986
0.0250334
0.0249486
0.0248453
0.0247244
0.0245866
0.0244329
0.0242642
0.0240812
0.0238848
0.0236758
0.023455
0.0232231
0.022981
0.0227293
0.0224688
0.0222001
0.0219239
0.0216408
0.0213515
0.0210566
0.0207566
0.0204522
0.0201438
0.0198319
0.0195171
0.0191999
0.0188806
0.0185598
0.0182378
0.0179151
0.0175919
0.0172688
0.0169459
0.0166238
0.0163025
0.0159825
0.015664
0.0153473
0.0150326
0.0147201
0.0144101
0.0141028
0.0137983
0.0134967
0.0131984
0.0129034
0.0126118
0.0123238
0.0120395
0.011759
0.0114824
0.0112097
0.0109411
0.0106766
0.0104162
0.0101601
0.00990819
0.00966058
0.00941727
0.00917829
0.00894365
0.00871335
0.0084874
0.00826579
0.00804852
0.00783557
0.00762693
0.00742256
0.00722244
0.00702655
0.00683485
0.00664731
0.00646388
0.00628452
0.00610919
0.00593785
0.00577044
0.00560691
0.00544721
0.00529129
0.0051391
0.00499057
0.00484565
0.00470428
0.00456641
0.00443197
0.0043009
0.00417315
0.00404866
0.00392735
0.00380918
0.00369408
0.00358199
0.00347285
0.00336661
0.00326319
0.00316255
0.00306462
0.00296935
0.00287667
0.00278653
0.00269887
0.00261364
0.00253079
0.00245025
0.00237197
0.0022959
0.00222199
0.00215019
0.00208044
0.00201269
0.00194691
0.00188303
0.00182101
0.00176081
0.00170238
0.00164567
0.00159065
0.00153726
0.00148546
0.00143523
0.0013865
0.00133925
0.00129344
0.00124902
0.00120596
0.00116423
0.00112379
0.0010846
0.00104663
0.00100985
0.000974225
0.000939722
0.000906311
0.000873961
0.000842645
0.000812332
0.000782994
0.000754605
0.000727137
0.000700564
0.00067486
0.000650001
0.000625962
0.00060272
0.000580252
0.000558534
0.000537545
0.000517264
0.00049767
0.000478741
0.000460459
0.000442805
0.000425758
0.000409301
0.000393416
0.000378086
0.000363293
0.00034902
0.000335253
0.000321975
0.000309171
0.000296826
0.000284925
0.000273454
0.000262401
0.000251751
0.000241491
0.000231609
0.000222093
0.00021293
0.00020411
0.00019562
0.00018745
0.000179589
0.000172028
0.000164754
0.00015776
0.000151036
0.000144572
0.000138359
0.000132389
0.000126653
0.000121143
0.000115852
0.000110771
0.000105893
0.000101212
9.67185e-05
9.24076e-05
8.82721e-05
8.43057e-05
8.05022e-05
7.68557e-05
7.33603e-05
7.00105e-05
6.68007e-05
6.37258e-05
6.07807e-05
5.79605e-05
5.52604e-05
5.26757e-05
5.02022e-05
4.78354e-05
4.55712e-05
4.34056e-05
4.13347e-05
3.93549e-05
3.74624e-05
3.56538e-05
3.39257e-05
3.22749e-05
3.06983e-05
2.91928e-05
2.77556e-05
2.63837e-05
2.50746e-05
2.38256e-05
2.26341e-05
2.14979e-05
2.04145e-05
1.93817e-05
1.83974e-05
1.74595e-05
1.6566e-05
1.57149e-05
1.49044e-05
1.41329e-05
1.33984e-05
1.26995e-05
1.20345e-05
1.14019e-05
1.08003e-05
1.02283e-05
9.68449e-06
9.16768e-06
8.6766e-06
8.21008e-06
7.76699e-06
7.34623e-06
6.94678e-06
6.56764e-06
6.20786e-06
5.86651e-06
5.54274e-06
5.2357e-06
4.9446e-06
4.66866e-06
4.40717e-06
4.15941e-06
3.92472e-06
3.70246e-06
3.49201e-06
3.29281e-06
3.10428e-06
2.9259e-06
2.75716e-06
2.59757e-06
2.44668e-06
2.30403e-06
2.16922e-06
2.04184e-06
1.92151e-06
1.80787e-06
1.70056e-06
1.59926e-06
1.50366e-06
1.41345e-06
1.32835e-06
1.24809e-06
1.17242e-06
1.10108e-06
1.03384e-06
9.70493e-07
9.10815e-07
8.54611e-07
8.01691e-07
7.51874e-07
7.0499e-07
6.60877e-07
6.1938e-07
5.80354e-07
5.43661e-07
5.0917e-07
4.76755e-07
4.46299e-07
4.17692e-07
3.90826e-07
3.65603e-07
3.41927e-07
3.19709e-07
2.98864e-07
2.79312e-07
2.60978e-07
2.43789e-07
2.27679e-07
2.12582e-07
1.98439e-07
1.85193e-07
1.7279e-07
1.61179e-07
1.50313e-07
1.40145e-07
1.30634e-07
1.21739e-07
1.13423e-07
1.05649e-07
9.8384e-08
9.15968e-08
8.52573e-08
7.93375e-08
7.3811e-08
6.8653e-08
6.38401e-08
5.93505e-08
5.51636e-08
5.126e-08
4.76215e-08
4.42311e-08
4.10729e-08
3.81318e-08
3.53938e-08
3.28458e-08
3.04754e-08
2.82713e-08
2.62226e-08
2.43195e-08
2.25526e-08
2.09133e-08
1.93938e-08
1.79866e-08
1.66851e-08
1.54832e-08
1.43754e-08
1.33569e-08
1.24234e-08
1.15712e-08
1.07974e-08
1.00996e-08
9.47622e-09
8.92637e-09
8.4499e-09
8.04746e-09
7.72042e-09
7.47083e-09
7.30128e-09
7.21505e-09
)
;
    }
}


// ************************************************************************* //
