/*--------------------------------*- C++ -*----------------------------------*\
  =========                 |
  \\      /  F ield         | OpenFOAM: The Open Source CFD Toolbox
   \\    /   O peration     | Website:  https://openfoam.org
    \\  /    A nd           | Version:  dev
     \\/     M anipulation  |
\*---------------------------------------------------------------------------*/
FoamFile
{
    format      ascii;
    class       volScalarField;
    location    "0.16";
    object      growth;
}
// * * * * * * * * * * * * * * * * * * * * * * * * * * * * * * * * * * * * * //

dimensions      [0 0 0 0 0 0 0];

internalField   uniform 0;

boundaryField
{
    frontAndBack
    {
        type            empty;
    }
    inlet
    {
        type            calculated;
        value           uniform 0;
    }
    outlet
    {
        type            calculated;
        value           uniform 0;
    }
    substrate
    {
        type            calculated;
        value           nonuniform List<scalar> 
400
(
0.723326
0.709212
0.698792
0.689227
0.680103
0.671383
0.662967
0.654766
0.646717
0.638773
0.6309
0.623071
0.615267
0.60747
0.59967
0.591856
0.584024
0.576168
0.568287
0.560378
0.552442
0.544479
0.536491
0.52848
0.520449
0.5124
0.504337
0.496263
0.488182
0.480099
0.472016
0.463938
0.455869
0.447814
0.439777
0.431761
0.423771
0.415811
0.407886
0.399999
0.392155
0.384356
0.376608
0.368913
0.361276
0.353699
0.346187
0.338742
0.331368
0.324067
0.316843
0.309698
0.302634
0.295655
0.288762
0.281957
0.275243
0.268621
0.262093
0.255661
0.249325
0.243088
0.236949
0.230911
0.224974
0.219139
0.213406
0.207776
0.202248
0.196825
0.191504
0.186287
0.181173
0.176162
0.171254
0.166448
0.161744
0.157141
0.152638
0.148236
0.143932
0.139726
0.135617
0.131604
0.127687
0.123863
0.120132
0.116493
0.112943
0.109483
0.106111
0.102824
0.0996232
0.0965055
0.09347
0.0905153
0.0876398
0.0848422
0.0821209
0.0794746
0.0769017
0.0744007
0.0719703
0.0696088
0.0673149
0.065087
0.0629238
0.0608237
0.0587854
0.0568073
0.0548882
0.0530266
0.051221
0.0494702
0.0477728
0.0461275
0.0445329
0.0429877
0.0414907
0.0400406
0.0386362
0.0372762
0.0359595
0.0346849
0.0334512
0.0322574
0.0311022
0.0299847
0.0289037
0.0278582
0.0268472
0.0258697
0.0249248
0.0240114
0.0231286
0.0222756
0.0214514
0.0206552
0.0198861
0.0191434
0.0184261
0.0177336
0.017065
0.0164196
0.0157967
0.0151956
0.0146156
0.0140561
0.0135163
0.0129956
0.0124935
0.0120093
0.0115424
0.0110924
0.0106585
0.0102404
0.00983746
0.0094492
0.00907514
0.00871479
0.0083677
0.00803343
0.00771153
0.0074016
0.00710323
0.00681601
0.00653957
0.00627354
0.00601755
0.00577126
0.00553434
0.00530644
0.00508727
0.00487651
0.00467386
0.00447904
0.00429177
0.00411178
0.0039388
0.0037726
0.00361292
0.00345953
0.00331219
0.0031707
0.00303483
0.00290439
0.00277916
0.00265896
0.0025436
0.00243291
0.0023267
0.00222481
0.00212708
0.00203335
0.00194347
0.0018573
0.00177469
0.0016955
0.00161962
0.0015469
0.00147722
0.00141048
0.00134655
0.00128532
0.0012267
0.00117057
0.00111684
0.00106541
0.0010162
0.000969112
0.000924063
0.000880971
0.000839759
0.000800349
0.00076267
0.00072665
0.000692222
0.000659321
0.000627884
0.00059785
0.000569161
0.000541762
0.000515599
0.000490619
0.000466774
0.000444015
0.000422297
0.000401575
0.000381807
0.000362951
0.00034497
0.000327824
0.000311479
0.000295899
0.00028105
0.000266902
0.000253423
0.000240584
0.000228356
0.000216712
0.000205627
0.000195075
0.000185032
0.000175476
0.000166385
0.000157737
0.000149512
0.000141691
0.000134255
0.000127187
0.00012047
0.000114087
0.000108024
0.000102264
9.67933e-05
9.15992e-05
8.66681e-05
8.19875e-05
7.75456e-05
7.3331e-05
6.93327e-05
6.55404e-05
6.19441e-05
5.85343e-05
5.53019e-05
5.22384e-05
4.93353e-05
4.65849e-05
4.39796e-05
4.15121e-05
3.91758e-05
3.69639e-05
3.48703e-05
3.2889e-05
3.10144e-05
2.9241e-05
2.75638e-05
2.59777e-05
2.44782e-05
2.30609e-05
2.17213e-05
2.04556e-05
1.92599e-05
1.81306e-05
1.70641e-05
1.60573e-05
1.51068e-05
1.42098e-05
1.33634e-05
1.2565e-05
1.18119e-05
1.11017e-05
1.04322e-05
9.80103e-06
9.20622e-06
8.64577e-06
8.11781e-06
7.62054e-06
7.15228e-06
6.71143e-06
6.29647e-06
5.90596e-06
5.53854e-06
5.19291e-06
4.86785e-06
4.56219e-06
4.27485e-06
4.00477e-06
3.75098e-06
3.51254e-06
3.28857e-06
3.07824e-06
2.88075e-06
2.69538e-06
2.5214e-06
2.35815e-06
2.20501e-06
2.06137e-06
1.92669e-06
1.80042e-06
1.68206e-06
1.57116e-06
1.46725e-06
1.36992e-06
1.27877e-06
1.19343e-06
1.11354e-06
1.03878e-06
9.68827e-07
9.03389e-07
8.42187e-07
7.84961e-07
7.31464e-07
6.81463e-07
6.34742e-07
5.91094e-07
5.50326e-07
5.12257e-07
4.76717e-07
4.43544e-07
4.12588e-07
3.83708e-07
3.5677e-07
3.31649e-07
3.08228e-07
2.86397e-07
2.66053e-07
2.47099e-07
2.29443e-07
2.13001e-07
1.97693e-07
1.83444e-07
1.70183e-07
1.57845e-07
1.46368e-07
1.35695e-07
1.25772e-07
1.16548e-07
1.07975e-07
1.00011e-07
9.26124e-08
8.57419e-08
7.93629e-08
7.34417e-08
6.79468e-08
6.28487e-08
5.81198e-08
5.37346e-08
4.9669e-08
4.59007e-08
4.24088e-08
3.9174e-08
3.61781e-08
3.34043e-08
3.08369e-08
2.84612e-08
2.62637e-08
2.42318e-08
2.23537e-08
2.06188e-08
1.90168e-08
1.75386e-08
1.61756e-08
1.492e-08
1.37647e-08
1.27031e-08
1.17294e-08
1.08384e-08
1.00253e-08
9.2863e-09
8.61792e-09
8.01749e-09
7.48294e-09
7.0129e-09
6.60672e-09
6.26445e-09
5.98687e-09
5.77543e-09
5.63215e-09
5.55939e-09
)
;
    }
    Wall
    {
        type            calculated;
        value           nonuniform List<scalar> 
400
(
0.723326
0.709212
0.698793
0.689228
0.680103
0.671382
0.662966
0.654764
0.646714
0.63877
0.630897
0.623069
0.615264
0.607468
0.599667
0.591854
0.584022
0.576167
0.568285
0.560377
0.552441
0.544478
0.536491
0.52848
0.520449
0.5124
0.504337
0.496264
0.488183
0.4801
0.472017
0.46394
0.455871
0.447816
0.439779
0.431763
0.423774
0.415814
0.407889
0.400002
0.392158
0.38436
0.376611
0.368917
0.36128
0.353703
0.346191
0.338746
0.331372
0.324072
0.316847
0.309702
0.302639
0.295659
0.288766
0.281962
0.275248
0.268626
0.262098
0.255665
0.24933
0.243092
0.236954
0.230916
0.224979
0.219144
0.213411
0.20778
0.202253
0.196829
0.191509
0.186292
0.181178
0.176167
0.171259
0.166453
0.161748
0.157145
0.152643
0.14824
0.143936
0.13973
0.135621
0.131609
0.127691
0.123867
0.120136
0.116496
0.112947
0.109487
0.106114
0.102828
0.0996267
0.096509
0.0934734
0.0905186
0.0876431
0.0848454
0.0821241
0.0794777
0.0769047
0.0744037
0.0719731
0.0696116
0.0673176
0.0650897
0.0629264
0.0608263
0.0587879
0.0568098
0.0548906
0.0530289
0.0512233
0.0494725
0.047775
0.0461296
0.044535
0.0429897
0.0414927
0.0400426
0.0386381
0.0372781
0.0359613
0.0346867
0.033453
0.032259
0.0311038
0.0299862
0.0289052
0.0278597
0.0268487
0.0258711
0.0249261
0.0240127
0.0231299
0.0222768
0.0214526
0.0206564
0.0198873
0.0191445
0.0184272
0.0177346
0.017066
0.0164206
0.0157977
0.0151966
0.0146165
0.0140569
0.0135171
0.0129964
0.0124943
0.0120101
0.0115432
0.0110931
0.0106592
0.0102411
0.00983813
0.00944984
0.00907576
0.00871539
0.00836828
0.00803399
0.00771208
0.00740213
0.00710374
0.0068165
0.00654005
0.006274
0.006018
0.00577169
0.00553475
0.00530685
0.00508766
0.00487688
0.00467422
0.00447939
0.0042921
0.0041121
0.00393912
0.0037729
0.00361321
0.00345981
0.00331247
0.00317096
0.00303509
0.00290463
0.0027794
0.00265919
0.00254382
0.00243312
0.0023269
0.00222501
0.00212727
0.00203353
0.00194365
0.00185747
0.00177485
0.00169566
0.00161976
0.00154704
0.00147736
0.00141061
0.00134668
0.00128545
0.00122682
0.00117068
0.00111695
0.00106552
0.0010163
0.000969209
0.000924156
0.000881061
0.000839845
0.000800432
0.000762749
0.000726726
0.000692295
0.000659391
0.00062795
0.000597914
0.000569222
0.000541821
0.000515655
0.000490673
0.000466826
0.000444065
0.000422344
0.00040162
0.00038185
0.000362993
0.000345009
0.000327862
0.000311515
0.000295933
0.000281083
0.000266934
0.000253453
0.000240612
0.000228383
0.000216738
0.000205652
0.000195099
0.000185055
0.000175498
0.000166405
0.000157756
0.000149531
0.000141709
0.000134272
0.000127204
0.000120486
0.000114102
0.000108038
0.000102277
9.68062e-05
9.16114e-05
8.66797e-05
8.19986e-05
7.75561e-05
7.3341e-05
6.93422e-05
6.55494e-05
6.19527e-05
5.85425e-05
5.53097e-05
5.22458e-05
4.93423e-05
4.65916e-05
4.39859e-05
4.15181e-05
3.91814e-05
3.69693e-05
3.48754e-05
3.28938e-05
3.1019e-05
2.92454e-05
2.75679e-05
2.59817e-05
2.4482e-05
2.30644e-05
2.17247e-05
2.04588e-05
1.92629e-05
1.81334e-05
1.70668e-05
1.60598e-05
1.51092e-05
1.42121e-05
1.33656e-05
1.2567e-05
1.18138e-05
1.11035e-05
1.04339e-05
9.80263e-06
9.20774e-06
8.64721e-06
8.11916e-06
7.62181e-06
7.15348e-06
6.71257e-06
6.29754e-06
5.90697e-06
5.53949e-06
5.19381e-06
4.86869e-06
4.56299e-06
4.2756e-06
4.00547e-06
3.75164e-06
3.51316e-06
3.28916e-06
3.07879e-06
2.88128e-06
2.69587e-06
2.52186e-06
2.35858e-06
2.20541e-06
2.06176e-06
1.92705e-06
1.80076e-06
1.68238e-06
1.57146e-06
1.46753e-06
1.37018e-06
1.27902e-06
1.19366e-06
1.11376e-06
1.03898e-06
9.69017e-07
9.03567e-07
8.42355e-07
7.85118e-07
7.3161e-07
6.81601e-07
6.3487e-07
5.91214e-07
5.50439e-07
5.12363e-07
4.76816e-07
4.43637e-07
4.12675e-07
3.83789e-07
3.56845e-07
3.31719e-07
3.08294e-07
2.86459e-07
2.66111e-07
2.47152e-07
2.29493e-07
2.13048e-07
1.97737e-07
1.83484e-07
1.70221e-07
1.5788e-07
1.46401e-07
1.35726e-07
1.258e-07
1.16574e-07
1.08e-07
1.00034e-07
9.26339e-08
8.57618e-08
7.93815e-08
7.3459e-08
6.79629e-08
6.28636e-08
5.81337e-08
5.37475e-08
4.9681e-08
4.59118e-08
4.24192e-08
3.91836e-08
3.61871e-08
3.34126e-08
3.08445e-08
2.84683e-08
2.62703e-08
2.42379e-08
2.23594e-08
2.0624e-08
1.90217e-08
1.75431e-08
1.61798e-08
1.49239e-08
1.37683e-08
1.27065e-08
1.17325e-08
1.08412e-08
1.0028e-08
9.28878e-09
8.62024e-09
8.01966e-09
7.48497e-09
7.01482e-09
6.60854e-09
6.26619e-09
5.98854e-09
5.77699e-09
5.63349e-09
5.56057e-09
)
;
    }
}


// ************************************************************************* //
