/*--------------------------------*- C++ -*----------------------------------*\
  =========                 |
  \\      /  F ield         | OpenFOAM: The Open Source CFD Toolbox
   \\    /   O peration     | Website:  https://openfoam.org
    \\  /    A nd           | Version:  dev
     \\/     M anipulation  |
\*---------------------------------------------------------------------------*/
FoamFile
{
    format      ascii;
    class       volScalarField;
    location    "0.16";
    object      N1;
}
// * * * * * * * * * * * * * * * * * * * * * * * * * * * * * * * * * * * * * //

dimensions      [0 0 0 0 0 0 0];

internalField   nonuniform List<scalar> 
8000
(
0.00150141
0.00477495
0.0083514
0.0121945
0.0162836
0.0206073
0.0251521
0.0299027
0.0348436
0.0399586
0.0452307
0.050642
0.0561737
0.0618061
0.0675188
0.0732906
0.0791
0.0849254
0.0907448
0.0965367
0.10228
0.107954
0.113539
0.119016
0.124367
0.129576
0.134628
0.13951
0.144207
0.148711
0.153011
0.157099
0.160969
0.164616
0.168035
0.171224
0.174182
0.176907
0.179401
0.181666
0.183702
0.185514
0.187104
0.188479
0.189641
0.190596
0.191351
0.19191
0.192281
0.192469
0.192481
0.192325
0.192006
0.19153
0.190905
0.190138
0.189234
0.188202
0.187047
0.185776
0.184395
0.182911
0.18133
0.179658
0.177901
0.176064
0.174153
0.172174
0.170132
0.168031
0.165877
0.163675
0.161428
0.159143
0.156822
0.15447
0.152091
0.149689
0.147268
0.14483
0.14238
0.13992
0.137454
0.134984
0.132513
0.130045
0.127581
0.125123
0.122675
0.120238
0.117813
0.115404
0.113012
0.110638
0.108284
0.105951
0.103641
0.101355
0.0990942
0.0968595
0.094652
0.0924725
0.0903218
0.0882006
0.0861096
0.0840494
0.0820205
0.0800233
0.0780583
0.0761256
0.0742256
0.0723585
0.0705245
0.0687236
0.066956
0.0652216
0.0635204
0.0618524
0.0602175
0.0586154
0.0570462
0.0555095
0.0540052
0.052533
0.0510926
0.0496837
0.0483061
0.0469593
0.0456431
0.044357
0.0431008
0.0418739
0.0406759
0.0395066
0.0383654
0.0372518
0.0361656
0.0351061
0.034073
0.0330658
0.032084
0.0311272
0.0301949
0.0292867
0.0284021
0.0275405
0.0267017
0.025885
0.0250901
0.0243165
0.0235638
0.0228314
0.022119
0.021426
0.0207522
0.020097
0.01946
0.0188408
0.018239
0.0176542
0.017086
0.0165339
0.0159977
0.0154769
0.0149711
0.0144799
0.0140031
0.0135402
0.013091
0.0126549
0.0122318
0.0118213
0.0114231
0.0110368
0.0106621
0.0102988
0.00994653
0.00960499
0.00927391
0.00895302
0.00864203
0.00834069
0.00804873
0.00776589
0.00749194
0.00722662
0.00696969
0.00672093
0.00648011
0.00624701
0.00602141
0.00580309
0.00559186
0.00538751
0.00518985
0.00499869
0.00481383
0.00463509
0.00446231
0.00429529
0.00413389
0.00397792
0.00382724
0.00368167
0.00354108
0.00340531
0.00327422
0.00314766
0.0030255
0.00290761
0.00279384
0.00268409
0.00257821
0.0024761
0.00237763
0.00228269
0.00219117
0.00210296
0.00201795
0.00193605
0.00185715
0.00178115
0.00170797
0.00163751
0.00156967
0.00150438
0.00144155
0.0013811
0.00132295
0.00126702
0.00121323
0.00116151
0.0011118
0.00106402
0.00101811
0.000974
0.000931629
0.000890937
0.000851863
0.000814352
0.000778346
0.000743793
0.00071064
0.000678837
0.000648334
0.000619084
0.00059104
0.00056416
0.000538398
0.000513714
0.000490067
0.000467418
0.00044573
0.000424965
0.000405088
0.000386065
0.000367864
0.000350452
0.000333797
0.000317872
0.000302646
0.000288092
0.000274184
0.000260894
0.000248199
0.000236075
0.000224497
0.000213444
0.000202894
0.000192827
0.000183222
0.000174059
0.000165321
0.00015699
0.000149047
0.000141478
0.000134265
0.000127393
0.000120849
0.000114616
0.000108682
0.000103034
9.76594e-05
9.25454e-05
8.76808e-05
8.30544e-05
7.86554e-05
7.44737e-05
7.04994e-05
6.6723e-05
6.31354e-05
5.97279e-05
5.64923e-05
5.34204e-05
5.05048e-05
4.7738e-05
4.51131e-05
4.26232e-05
4.02621e-05
3.80235e-05
3.59015e-05
3.38906e-05
3.19853e-05
3.01806e-05
2.84714e-05
2.68531e-05
2.53212e-05
2.38714e-05
2.24997e-05
2.1202e-05
1.99748e-05
1.88145e-05
1.77175e-05
1.66809e-05
1.57013e-05
1.4776e-05
1.3902e-05
1.30769e-05
1.22979e-05
1.15627e-05
1.0869e-05
1.02146e-05
9.59745e-06
9.01551e-06
8.46693e-06
7.94991e-06
7.46275e-06
7.00384e-06
6.57164e-06
6.1647e-06
5.78162e-06
5.42109e-06
5.08187e-06
4.76277e-06
4.46267e-06
4.18051e-06
3.91528e-06
3.66602e-06
3.43183e-06
3.21185e-06
3.00526e-06
2.8113e-06
2.62924e-06
2.45839e-06
2.2981e-06
2.14776e-06
2.00677e-06
1.8746e-06
1.75072e-06
1.63463e-06
1.52588e-06
1.42402e-06
1.32865e-06
1.23937e-06
1.15581e-06
1.07762e-06
1.00449e-06
9.36089e-07
8.72139e-07
8.12363e-07
7.56502e-07
7.04312e-07
6.55565e-07
6.10045e-07
5.67549e-07
5.27887e-07
4.90879e-07
4.56357e-07
4.24162e-07
3.94146e-07
3.66169e-07
3.40099e-07
3.15814e-07
2.93199e-07
2.72146e-07
2.52554e-07
2.34328e-07
2.1738e-07
2.01627e-07
1.86993e-07
1.73407e-07
1.60803e-07
1.49119e-07
1.38298e-07
1.28291e-07
1.1905e-07
1.10532e-07
1.027e-07
9.55225e-08
8.89699e-08
8.30199e-08
7.76546e-08
7.28614e-08
6.86335e-08
6.49699e-08
6.18754e-08
5.93608e-08
5.74423e-08
5.61409e-08
5.54795e-08
0.00147167
0.00470988
0.00825912
0.0120933
0.0161885
0.0205286
0.0250981
0.029881
0.0348612
0.0400225
0.0453475
0.0508183
0.0564161
0.062121
0.0679124
0.073769
0.079669
0.0855905
0.0915112
0.0974092
0.103263
0.109051
0.114754
0.120352
0.125827
0.131162
0.136342
0.141351
0.146178
0.150811
0.15524
0.159457
0.163454
0.167226
0.170769
0.174079
0.177155
0.179996
0.182603
0.184975
0.187117
0.18903
0.190718
0.192184
0.193435
0.194474
0.195308
0.195942
0.196382
0.196635
0.196707
0.196607
0.196339
0.195909
0.195325
0.194593
0.193722
0.192716
0.191584
0.190331
0.188965
0.187491
0.185916
0.184246
0.182486
0.180644
0.178724
0.176731
0.174673
0.172553
0.170376
0.168148
0.165874
0.163557
0.161203
0.158815
0.156398
0.153955
0.151491
0.149009
0.146513
0.144005
0.141489
0.138969
0.136446
0.133924
0.131406
0.128893
0.126388
0.123894
0.121412
0.118945
0.116493
0.11406
0.111647
0.109254
0.106884
0.104538
0.102218
0.0999229
0.0976555
0.0954163
0.0932062
0.0910259
0.0888761
0.0867575
0.0846706
0.0826158
0.0805937
0.0786046
0.0766487
0.0747264
0.0728377
0.0709829
0.069162
0.067375
0.065622
0.0639029
0.0622177
0.0605661
0.0589481
0.0573635
0.0558121
0.0542936
0.0528077
0.0513542
0.0499327
0.048543
0.0471846
0.0458572
0.0445605
0.0432939
0.0420571
0.0408498
0.0396713
0.0385214
0.0373995
0.0363053
0.0352382
0.0341977
0.0331835
0.032195
0.0312317
0.0302933
0.0293791
0.0284889
0.0276219
0.0267779
0.0259563
0.0251567
0.0243786
0.0236215
0.022885
0.0221686
0.021472
0.0207946
0.0201359
0.0194957
0.0188734
0.0182687
0.0176811
0.0171102
0.0165556
0.0160169
0.0154938
0.0149858
0.0144926
0.0140138
0.0135491
0.0130981
0.0126604
0.0122358
0.0118238
0.0114241
0.0110365
0.0106606
0.0102962
0.00994279
0.00960023
0.00926821
0.00894643
0.00863462
0.00833251
0.00803983
0.00775634
0.00748178
0.00721591
0.00695848
0.00670925
0.00646801
0.00623453
0.00600859
0.00578997
0.00557847
0.00537389
0.00517603
0.00498469
0.00479969
0.00462084
0.00444796
0.00428089
0.00411944
0.00396346
0.00381278
0.00366724
0.00352669
0.00339097
0.00325995
0.00313349
0.00301143
0.00289365
0.00278002
0.0026704
0.00256468
0.00246273
0.00236443
0.00226966
0.00217833
0.00209031
0.0020055
0.0019238
0.00184511
0.00176933
0.00169636
0.00162611
0.0015585
0.00149344
0.00143083
0.00137061
0.00131268
0.00125697
0.00120342
0.00115193
0.00110244
0.00105489
0.0010092
0.000965318
0.000923169
0.000882697
0.000843842
0.000806546
0.000770754
0.000736412
0.000703467
0.000671868
0.000641567
0.000612516
0.000584669
0.00055798
0.000532407
0.000507909
0.000484444
0.000461973
0.000440459
0.000419865
0.000400155
0.000381296
0.000363254
0.000345998
0.000329496
0.000313719
0.000298638
0.000284225
0.000270454
0.000257298
0.000244734
0.000232735
0.000221281
0.000210347
0.000199914
0.000189959
0.000180463
0.000171406
0.000162771
0.000154539
0.000146693
0.000139217
0.000132095
0.00012531
0.00011885
0.000112699
0.000106844
0.000101273
9.59711e-05
9.09281e-05
8.61319e-05
8.15715e-05
7.72362e-05
7.31158e-05
6.92005e-05
6.5481e-05
6.19481e-05
5.85933e-05
5.54083e-05
5.23851e-05
4.95163e-05
4.67944e-05
4.42126e-05
4.17642e-05
3.94429e-05
3.72424e-05
3.51571e-05
3.31812e-05
3.13096e-05
2.9537e-05
2.78587e-05
2.62699e-05
2.47663e-05
2.33436e-05
2.19978e-05
2.07249e-05
1.95213e-05
1.83836e-05
1.73082e-05
1.62922e-05
1.53323e-05
1.44258e-05
1.35698e-05
1.27617e-05
1.1999e-05
1.12794e-05
1.06005e-05
9.9602e-06
9.35646e-06
8.7873e-06
8.25089e-06
7.74545e-06
7.2693e-06
6.82086e-06
6.39861e-06
6.00111e-06
5.62702e-06
5.27502e-06
4.94389e-06
4.63248e-06
4.33967e-06
4.06442e-06
3.80575e-06
3.5627e-06
3.3344e-06
3.12e-06
2.91869e-06
2.72973e-06
2.55241e-06
2.38604e-06
2.22999e-06
2.08365e-06
1.94645e-06
1.81786e-06
1.69736e-06
1.58446e-06
1.47873e-06
1.37972e-06
1.28703e-06
1.20029e-06
1.11912e-06
1.04319e-06
9.72174e-07
9.05779e-07
8.43715e-07
7.85714e-07
7.31525e-07
6.80908e-07
6.33642e-07
5.89515e-07
5.4833e-07
5.099e-07
4.7405e-07
4.40616e-07
4.09444e-07
3.80388e-07
3.53314e-07
3.28092e-07
3.04604e-07
2.82737e-07
2.62387e-07
2.43455e-07
2.2585e-07
2.09486e-07
1.94284e-07
1.80169e-07
1.67073e-07
1.54933e-07
1.43689e-07
1.33289e-07
1.23683e-07
1.14828e-07
1.06685e-07
9.92191e-08
9.24013e-08
8.62077e-08
8.06195e-08
7.56235e-08
7.12126e-08
6.73855e-08
6.41477e-08
6.15107e-08
5.94928e-08
5.81179e-08
5.74151e-08
0.00144555
0.00463009
0.00811802
0.0118992
0.0159563
0.0202716
0.024828
0.0296085
0.0345964
0.0397747
0.0451258
0.0506315
0.0562726
0.0620291
0.06788
0.0738039
0.0797786
0.0857816
0.0917906
0.097783
0.103737
0.109631
0.115444
0.121156
0.126749
0.132206
0.137509
0.142645
0.147599
0.15236
0.156918
0.161263
0.165388
0.169288
0.172956
0.176391
0.179589
0.182549
0.185272
0.187758
0.19001
0.192029
0.193819
0.195384
0.196728
0.197857
0.198776
0.199491
0.200007
0.200331
0.20047
0.20043
0.200221
0.199843
0.199307
0.198619
0.197786
0.196814
0.195712
0.194484
0.193139
0.191682
0.190119
0.188458
0.186703
0.184862
0.182939
0.180941
0.178873
0.17674
0.174548
0.172302
0.170005
0.167664
0.165283
0.162866
0.160417
0.157941
0.15544
0.15292
0.150384
0.147835
0.145276
0.14271
0.140142
0.137572
0.135005
0.132443
0.129887
0.127341
0.124807
0.122287
0.119782
0.117295
0.114827
0.11238
0.109955
0.107554
0.105178
0.102828
0.100505
0.0982104
0.0959451
0.0937099
0.0915054
0.0893324
0.0871914
0.085083
0.0830077
0.0809657
0.0789576
0.0769834
0.0750435
0.073138
0.0712671
0.0694307
0.0676289
0.0658618
0.0641291
0.0624309
0.0607669
0.059137
0.0575411
0.0559788
0.0544499
0.0529541
0.0514912
0.0500607
0.0486624
0.0472958
0.0459606
0.0446564
0.0433827
0.0421392
0.0409254
0.0397409
0.0385851
0.0374577
0.0363582
0.0352861
0.0342409
0.0332222
0.0322294
0.0312621
0.0303199
0.0294021
0.0285084
0.0276382
0.0267911
0.0259666
0.0251642
0.0243835
0.023624
0.0228852
0.0221667
0.021468
0.0207887
0.0201282
0.0194863
0.0188625
0.0182563
0.0176673
0.0170951
0.0165393
0.0159996
0.0154754
0.0149665
0.0144724
0.0139929
0.0135274
0.0130757
0.0126375
0.0122122
0.0117998
0.0113997
0.0110117
0.0106355
0.0102707
0.00991712
0.00957437
0.00924218
0.00892028
0.00860838
0.00830622
0.00801353
0.00773005
0.00745553
0.00718973
0.00693239
0.00668328
0.00644218
0.00620887
0.00598311
0.00576469
0.00555341
0.00534907
0.00515146
0.00496039
0.00477567
0.00459711
0.00442454
0.00425778
0.00409666
0.00394101
0.00379067
0.00364548
0.00350528
0.00336993
0.00323928
0.00311318
0.00299149
0.00287409
0.00276083
0.0026516
0.00254625
0.00244468
0.00234676
0.00225238
0.00216143
0.00207379
0.00198936
0.00190803
0.00182971
0.0017543
0.0016817
0.00161182
0.00154457
0.00147986
0.00141761
0.00135773
0.00130015
0.00124478
0.00119156
0.0011404
0.00109124
0.001044
0.000998632
0.000955055
0.000913209
0.000873035
0.000834471
0.000797462
0.00076195
0.000727883
0.000695207
0.000663872
0.000633828
0.000605028
0.000577427
0.000550978
0.00052564
0.000501369
0.000478127
0.000455874
0.000434571
0.000414183
0.000394674
0.00037601
0.000358157
0.000341085
0.000324763
0.00030916
0.000294248
0.000279999
0.000266387
0.000253386
0.00024097
0.000229117
0.000217803
0.000207005
0.000196703
0.000186875
0.000177502
0.000168565
0.000160045
0.000151924
0.000144186
0.000136813
0.00012979
0.000123103
0.000116735
0.000110674
0.000104906
9.94171e-05
9.41959e-05
8.92301e-05
8.45082e-05
8.00193e-05
7.57527e-05
7.16984e-05
6.78467e-05
6.41881e-05
6.07139e-05
5.74154e-05
5.42844e-05
5.13131e-05
4.8494e-05
4.58199e-05
4.32839e-05
4.08793e-05
3.85999e-05
3.64397e-05
3.43929e-05
3.24539e-05
3.06175e-05
2.88787e-05
2.72327e-05
2.56748e-05
2.42007e-05
2.28061e-05
2.14872e-05
2.024e-05
1.90609e-05
1.79466e-05
1.68936e-05
1.58988e-05
1.49593e-05
1.40721e-05
1.32345e-05
1.2444e-05
1.1698e-05
1.09943e-05
1.03306e-05
9.7047e-06
9.11466e-06
8.55854e-06
8.03452e-06
7.54085e-06
7.07589e-06
6.63808e-06
6.22591e-06
5.838e-06
5.47298e-06
5.1296e-06
4.80665e-06
4.50299e-06
4.21753e-06
3.94924e-06
3.69716e-06
3.46035e-06
3.23796e-06
3.02915e-06
2.83313e-06
2.64918e-06
2.47659e-06
2.3147e-06
2.16287e-06
2.02053e-06
1.8871e-06
1.76207e-06
1.64493e-06
1.53522e-06
1.43248e-06
1.33629e-06
1.24627e-06
1.16203e-06
1.08322e-06
1.00952e-06
9.40608e-07
8.76188e-07
8.15983e-07
7.59733e-07
7.07189e-07
6.58122e-07
6.12311e-07
5.69553e-07
5.29654e-07
4.92432e-07
4.57717e-07
4.2535e-07
3.95179e-07
3.67064e-07
3.40871e-07
3.16478e-07
2.93768e-07
2.72632e-07
2.52967e-07
2.3468e-07
2.17681e-07
2.01888e-07
1.87223e-07
1.73615e-07
1.60998e-07
1.49312e-07
1.385e-07
1.28512e-07
1.19302e-07
1.10829e-07
1.03057e-07
9.59565e-08
8.95013e-08
8.36718e-08
7.84541e-08
7.38406e-08
6.98302e-08
6.64289e-08
6.36499e-08
6.1514e-08
6.00499e-08
5.92959e-08
0.00142013
0.0045479
0.00796894
0.0116816
0.0156763
0.0199388
0.0244532
0.0292032
0.0341718
0.0393418
0.0446954
0.050214
0.055878
0.061667
0.0675598
0.0735345
0.0795684
0.0856387
0.0917225
0.0977968
0.103839
0.109827
0.11574
0.121558
0.12726
0.13283
0.138249
0.143504
0.148579
0.153463
0.158144
0.162614
0.166863
0.170886
0.174677
0.178233
0.181551
0.184628
0.187466
0.190065
0.192425
0.19455
0.196442
0.198105
0.199544
0.200764
0.201769
0.202565
0.203159
0.203556
0.203763
0.203787
0.203639
0.203317
0.202831
0.202189
0.201398
0.200464
0.199395
0.198197
0.196877
0.195441
0.193895
0.192247
0.190503
0.188667
0.186747
0.184749
0.182676
0.180536
0.178334
0.176074
0.173762
0.171402
0.169
0.166559
0.164084
0.16158
0.15905
0.156497
0.153927
0.151342
0.148746
0.146142
0.143533
0.140922
0.138312
0.135706
0.133106
0.130514
0.127934
0.125366
0.122814
0.120278
0.117761
0.115265
0.112791
0.11034
0.107914
0.105514
0.103141
0.100796
0.098481
0.0961958
0.0939416
0.0917191
0.0895288
0.0873715
0.0852475
0.0831573
0.0811013
0.0790797
0.0770929
0.0751409
0.0732241
0.0713423
0.0694958
0.0676844
0.0659081
0.0641669
0.0624606
0.060789
0.059152
0.0575493
0.0559808
0.054446
0.0529447
0.0514766
0.0500413
0.0486385
0.0472677
0.0459286
0.0446208
0.0433438
0.0420972
0.0408806
0.0396934
0.0385353
0.0374057
0.0363042
0.0352303
0.0341835
0.0331633
0.0321692
0.0312007
0.0302574
0.0293387
0.0284442
0.0275734
0.0267258
0.0259008
0.0250981
0.0243171
0.0235574
0.0228185
0.0221
0.0214013
0.0207221
0.0200619
0.0194202
0.0187966
0.0181907
0.0176021
0.0170304
0.0164751
0.0159358
0.0154122
0.0149038
0.0144104
0.0139314
0.0134666
0.0130156
0.0125781
0.0121536
0.0117418
0.0113425
0.0109553
0.0105799
0.0102159
0.00986308
0.00952114
0.00918978
0.00886871
0.00855765
0.00825633
0.00796448
0.00768185
0.00740818
0.00714322
0.00688673
0.00663848
0.00639823
0.00616576
0.00594084
0.00572327
0.00551283
0.00530933
0.00511254
0.0049223
0.0047384
0.00456066
0.00438889
0.00422293
0.0040626
0.00390773
0.00375817
0.00361374
0.00347431
0.0033397
0.00320979
0.00308442
0.00296346
0.00284677
0.00273421
0.00262566
0.002521
0.0024201
0.00232284
0.00222911
0.00213879
0.00205177
0.00196796
0.00188724
0.00180951
0.00173468
0.00166265
0.00159333
0.00152662
0.00146245
0.00140072
0.00134136
0.00128428
0.0012294
0.00117666
0.00112597
0.00107727
0.00103049
0.00098555
0.000942399
0.00090097
0.000861201
0.000823033
0.000786408
0.000751272
0.00071757
0.000685249
0.00065426
0.000624553
0.00059608
0.000568796
0.000542657
0.000517618
0.000493639
0.00047068
0.000448701
0.000427664
0.000407534
0.000388275
0.000369853
0.000352236
0.000335391
0.000319289
0.000303899
0.000289193
0.000275143
0.000261724
0.000248908
0.000236673
0.000224994
0.000213847
0.000203212
0.000193066
0.000183389
0.000174161
0.000165364
0.000156979
0.000148988
0.000141375
0.000134123
0.000127217
0.000120641
0.000114381
0.000108424
0.000102755
9.73617e-05
9.22324e-05
8.73548e-05
8.27177e-05
7.83102e-05
7.41218e-05
7.01424e-05
6.63625e-05
6.27729e-05
5.93648e-05
5.61296e-05
5.30593e-05
5.01462e-05
4.73827e-05
4.47618e-05
4.22768e-05
3.9921e-05
3.76883e-05
3.55727e-05
3.35684e-05
3.16702e-05
2.98728e-05
2.81711e-05
2.65606e-05
2.50365e-05
2.35947e-05
2.2231e-05
2.09415e-05
1.97223e-05
1.857e-05
1.74812e-05
1.64524e-05
1.54808e-05
1.45632e-05
1.36969e-05
1.28793e-05
1.21077e-05
1.13798e-05
1.06932e-05
1.00458e-05
9.43537e-06
8.86004e-06
8.31789e-06
7.80712e-06
7.32604e-06
6.87302e-06
6.44652e-06
6.0451e-06
5.66737e-06
5.31201e-06
4.97777e-06
4.66349e-06
4.36803e-06
4.09033e-06
3.8294e-06
3.58427e-06
3.35405e-06
3.13788e-06
2.93495e-06
2.7445e-06
2.5658e-06
2.39817e-06
2.24097e-06
2.09357e-06
1.9554e-06
1.82592e-06
1.70461e-06
1.59098e-06
1.48457e-06
1.38494e-06
1.29169e-06
1.20443e-06
1.1228e-06
1.04645e-06
9.75056e-07
9.08315e-07
8.45938e-07
7.87656e-07
7.33212e-07
6.82367e-07
6.34896e-07
5.90585e-07
5.49235e-07
5.10658e-07
4.74678e-07
4.4113e-07
4.09856e-07
3.80712e-07
3.53559e-07
3.28271e-07
3.04725e-07
2.8281e-07
2.62421e-07
2.43457e-07
2.25828e-07
2.09448e-07
1.94236e-07
1.8012e-07
1.67029e-07
1.54902e-07
1.4368e-07
1.3331e-07
1.23744e-07
1.14941e-07
1.06863e-07
9.94764e-08
9.27562e-08
8.66812e-08
8.12365e-08
7.64142e-08
7.22134e-08
6.86408e-08
6.57117e-08
6.34504e-08
6.18912e-08
6.10823e-08
0.00139643
0.00447081
0.00782928
0.0114729
0.0153977
0.0195944
0.0240504
0.0287513
0.0336815
0.0388242
0.0441618
0.0496754
0.0553453
0.0611507
0.0670699
0.0730805
0.0791593
0.0852831
0.0914283
0.0975715
0.10369
0.10976
0.115761
0.121671
0.127471
0.133143
0.138668
0.14403
0.149216
0.154213
0.159008
0.163593
0.167957
0.172095
0.176001
0.17967
0.1831
0.186288
0.189234
0.191938
0.194402
0.196627
0.198616
0.200373
0.201903
0.203209
0.204297
0.205172
0.20584
0.206309
0.206583
0.206669
0.206579
0.206314
0.205878
0.205283
0.204534
0.203638
0.202604
0.201436
0.200143
0.19873
0.197204
0.195572
0.19384
0.192014
0.1901
0.188104
0.186031
0.183888
0.18168
0.179411
0.177088
0.174714
0.172296
0.169836
0.167341
0.164814
0.162259
0.15968
0.157081
0.154466
0.151839
0.149202
0.146559
0.143912
0.141266
0.138622
0.135983
0.133352
0.130731
0.128123
0.125529
0.122951
0.120392
0.117852
0.115335
0.11284
0.11037
0.107926
0.105509
0.10312
0.100761
0.0984314
0.0961331
0.0938667
0.0916328
0.0894319
0.0872647
0.0851316
0.083033
0.0809693
0.0789406
0.0769473
0.0749895
0.0730673
0.0711807
0.0693298
0.0675145
0.0657349
0.0639907
0.0622817
0.060608
0.0589691
0.0573649
0.0557951
0.0542595
0.0527576
0.0512891
0.0498537
0.048451
0.0470806
0.045742
0.0444349
0.0431588
0.0419133
0.0406979
0.039512
0.0383554
0.0372274
0.0361275
0.0350554
0.0340104
0.0329922
0.0320001
0.0310338
0.0300926
0.0291761
0.0282838
0.0274153
0.0265699
0.0257473
0.0249469
0.0241683
0.023411
0.0226745
0.0219584
0.0212621
0.0205853
0.0199275
0.0192882
0.0186671
0.0180636
0.0174774
0.016908
0.016355
0.0158181
0.0152968
0.0147908
0.0142996
0.0138229
0.0133603
0.0129115
0.0124761
0.0120538
0.0116442
0.011247
0.0108619
0.0104885
0.0101266
0.00977579
0.00943583
0.00910642
0.00878727
0.00847811
0.00817866
0.00788865
0.00760783
0.00733594
0.00707274
0.00681798
0.00657142
0.00633284
0.00610201
0.00587871
0.00566272
0.00545384
0.00525186
0.00505658
0.0048678
0.00468535
0.00450902
0.00433865
0.00417405
0.00401506
0.0038615
0.00371322
0.00357005
0.00343185
0.00329845
0.00316972
0.0030455
0.00292567
0.00281008
0.00269861
0.00259112
0.00248749
0.0023876
0.00229133
0.00219856
0.00210918
0.00202308
0.00194016
0.00186032
0.00178344
0.00170944
0.00163822
0.00156969
0.00150376
0.00144033
0.00137934
0.00132069
0.0012643
0.0012101
0.00115801
0.00110796
0.00105988
0.00101369
0.000969344
0.000926762
0.000885884
0.000846652
0.000809004
0.000772885
0.000738239
0.000705012
0.000673152
0.00064261
0.000613336
0.000585282
0.000558405
0.000532659
0.000508001
0.000484391
0.000461788
0.000440153
0.00041945
0.000399642
0.000380695
0.000362574
0.000345248
0.000328684
0.000312852
0.000297724
0.00028327
0.000269464
0.00025628
0.000243691
0.000231674
0.000220204
0.00020926
0.00019882
0.000188861
0.000179365
0.000170312
0.000161682
0.000153457
0.000145621
0.000138157
0.000131048
0.000124279
0.000117835
0.000111701
0.000105865
0.000100313
9.50315e-05
9.00094e-05
8.52347e-05
8.06962e-05
7.63831e-05
7.22851e-05
6.83924e-05
6.46955e-05
6.11854e-05
5.78532e-05
5.46908e-05
5.16901e-05
4.88435e-05
4.61437e-05
4.35836e-05
4.11566e-05
3.88563e-05
3.66766e-05
3.46116e-05
3.26557e-05
3.08035e-05
2.905e-05
2.73903e-05
2.58197e-05
2.43338e-05
2.29283e-05
2.15992e-05
2.03426e-05
1.91548e-05
1.80324e-05
1.69719e-05
1.59702e-05
1.50243e-05
1.41311e-05
1.32881e-05
1.24926e-05
1.1742e-05
1.1034e-05
1.03664e-05
9.73689e-06
9.14355e-06
8.58441e-06
8.05761e-06
7.56141e-06
7.09413e-06
6.6542e-06
6.24011e-06
5.85043e-06
5.48382e-06
5.13899e-06
4.81473e-06
4.50988e-06
4.22335e-06
3.9541e-06
3.70114e-06
3.46356e-06
3.24047e-06
3.03104e-06
2.83447e-06
2.65003e-06
2.47701e-06
2.31473e-06
2.16258e-06
2.01994e-06
1.88627e-06
1.76102e-06
1.6437e-06
1.53383e-06
1.43096e-06
1.33467e-06
1.24457e-06
1.16026e-06
1.08141e-06
1.00768e-06
9.38743e-07
8.74315e-07
8.14113e-07
7.57874e-07
7.0535e-07
6.56308e-07
6.10529e-07
5.67808e-07
5.27949e-07
4.90772e-07
4.56106e-07
4.23788e-07
3.93669e-07
3.65608e-07
3.39471e-07
3.15135e-07
2.92482e-07
2.71404e-07
2.51799e-07
2.33572e-07
2.16635e-07
2.00905e-07
1.86305e-07
1.72764e-07
1.60217e-07
1.48604e-07
1.3787e-07
1.27966e-07
1.18847e-07
1.10474e-07
1.02814e-07
9.58389e-08
8.95268e-08
8.38623e-08
7.88369e-08
7.445e-08
7.07093e-08
6.7632e-08
6.52463e-08
6.35927e-08
6.27291e-08
0.00137567
0.00440302
0.00770644
0.0112874
0.0151453
0.0192749
0.0236676
0.0283119
0.033194
0.0382985
0.0436085
0.0491052
0.0547689
0.0605784
0.0665117
0.0725457
0.078657
0.0848216
0.0910153
0.0972144
0.103395
0.109534
0.115609
0.121599
0.127484
0.133243
0.13886
0.144317
0.1496
0.154696
0.159592
0.164278
0.168744
0.172985
0.176993
0.180763
0.184293
0.18758
0.190623
0.193423
0.195979
0.198295
0.200372
0.202214
0.203826
0.20521
0.206374
0.207321
0.208058
0.208592
0.208927
0.209071
0.209034
0.208822
0.208434
0.207882
0.207173
0.206314
0.205312
0.204174
0.202907
0.201517
0.200011
0.198396
0.196677
0.194861
0.192955
0.190964
0.188894
0.18675
0.184539
0.182265
0.179934
0.177551
0.17512
0.172646
0.170135
0.16759
0.165015
0.162415
0.159794
0.157154
0.154501
0.151837
0.149165
0.14649
0.143813
0.141137
0.138467
0.135802
0.133148
0.130505
0.127875
0.125262
0.122667
0.120091
0.117536
0.115004
0.112497
0.110015
0.107561
0.105134
0.102737
0.10037
0.098034
0.09573
0.0934586
0.0912204
0.0890162
0.0868462
0.084711
0.0826109
0.0805463
0.0785174
0.0765243
0.0745671
0.0726461
0.0707611
0.0689122
0.0670993
0.0653224
0.0635812
0.0618757
0.0602055
0.0585705
0.0569705
0.055405
0.0538738
0.0523766
0.050913
0.0494826
0.048085
0.0467198
0.0453866
0.044085
0.0428144
0.0415744
0.0403645
0.0391843
0.0380333
0.036911
0.0358168
0.0347504
0.0337111
0.0326985
0.0317121
0.0307513
0.0298157
0.0289048
0.028018
0.0271549
0.026315
0.0254977
0.0247027
0.0239293
0.0231772
0.0224458
0.0217347
0.0210435
0.0203716
0.0197186
0.0190841
0.0184677
0.0178688
0.0172871
0.0167222
0.0161737
0.0156411
0.0151241
0.0146222
0.0141352
0.0136625
0.0132039
0.012759
0.0123274
0.0119089
0.0115029
0.0111093
0.0107278
0.0103578
0.0099993
0.00965182
0.00931512
0.0089889
0.00867288
0.00836677
0.00807031
0.00778324
0.00750528
0.0072362
0.00697574
0.00672367
0.00647974
0.00624373
0.0060154
0.00579456
0.00558097
0.00537443
0.00517474
0.00498169
0.0047951
0.00461478
0.00444054
0.00427219
0.00410958
0.00395252
0.00380086
0.00365442
0.00351305
0.00337659
0.00324491
0.00311784
0.00299525
0.002877
0.00276295
0.00265298
0.00254695
0.00244475
0.00234624
0.00225132
0.00215986
0.00207176
0.00198691
0.00190519
0.00182652
0.00175079
0.0016779
0.00160776
0.00154027
0.00147536
0.00141292
0.00135289
0.00129517
0.00123968
0.00118636
0.00113512
0.00108589
0.00103861
0.000993202
0.000949603
0.000907748
0.000867575
0.000829025
0.000792038
0.000756558
0.000722531
0.000689902
0.000658622
0.000628639
0.000599906
0.000572376
0.000546004
0.000520746
0.000496561
0.000473406
0.000451242
0.000430033
0.000409739
0.000390326
0.00037176
0.000354007
0.000337034
0.000320812
0.000305309
0.000290497
0.000276349
0.000262836
0.000249934
0.000237618
0.000225862
0.000214644
0.000203942
0.000193734
0.000184
0.000174718
0.000165871
0.000157439
0.000149405
0.000141752
0.000134463
0.000127522
0.000120914
0.000114625
0.00010864
0.000102946
9.75293e-05
9.23786e-05
8.74814e-05
8.28263e-05
7.84022e-05
7.41987e-05
7.02056e-05
6.64131e-05
6.28121e-05
5.93936e-05
5.61491e-05
5.30703e-05
5.01496e-05
4.73794e-05
4.47524e-05
4.2262e-05
3.99014e-05
3.76645e-05
3.55452e-05
3.35378e-05
3.16368e-05
2.9837e-05
2.81334e-05
2.65212e-05
2.49959e-05
2.35531e-05
2.21886e-05
2.08985e-05
1.9679e-05
1.85266e-05
1.74377e-05
1.64092e-05
1.54378e-05
1.45207e-05
1.3655e-05
1.2838e-05
1.20671e-05
1.134e-05
1.06542e-05
1.00077e-05
9.39821e-06
8.82384e-06
8.28268e-06
7.77293e-06
7.29287e-06
6.84088e-06
6.41543e-06
6.01505e-06
5.63835e-06
5.28402e-06
4.9508e-06
4.63752e-06
4.34306e-06
4.06634e-06
3.80636e-06
3.56217e-06
3.33286e-06
3.11758e-06
2.91553e-06
2.72592e-06
2.54805e-06
2.38121e-06
2.22478e-06
2.07813e-06
1.94069e-06
1.8119e-06
1.69126e-06
1.57827e-06
1.47249e-06
1.37346e-06
1.28079e-06
1.19408e-06
1.11298e-06
1.03713e-06
9.66224e-07
8.99948e-07
8.38016e-07
7.80158e-07
7.26119e-07
6.75661e-07
6.28559e-07
5.846e-07
5.43585e-07
5.05328e-07
4.69652e-07
4.36392e-07
4.05394e-07
3.76511e-07
3.49608e-07
3.24557e-07
3.01237e-07
2.79538e-07
2.59353e-07
2.40586e-07
2.23145e-07
2.06945e-07
1.91907e-07
1.77959e-07
1.65032e-07
1.53064e-07
1.42e-07
1.31788e-07
1.22382e-07
1.13742e-07
1.05832e-07
9.86245e-08
9.20955e-08
8.62294e-08
8.10174e-08
7.64589e-08
7.25626e-08
6.93479e-08
6.68465e-08
6.51048e-08
6.41901e-08
0.00135842
0.00434667
0.00760441
0.0111327
0.0149326
0.019002
0.0233354
0.0279244
0.0327577
0.0378213
0.0430992
0.0485734
0.054224
0.0600299
0.0659684
0.0720164
0.0781497
0.084344
0.0905745
0.0968169
0.103047
0.109241
0.115376
0.121431
0.127384
0.133216
0.138908
0.144444
0.149808
0.154987
0.159967
0.164738
0.16929
0.173617
0.17771
0.181566
0.185181
0.188552
0.191678
0.194558
0.197193
0.199586
0.201738
0.203653
0.205334
0.206786
0.208014
0.209023
0.20982
0.210409
0.210798
0.210992
0.211
0.210834
0.210487
0.209973
0.209299
0.208473
0.2075
0.206389
0.205145
0.203776
0.202288
0.200689
0.198983
0.197178
0.19528
0.193294
0.191227
0.189085
0.186873
0.184596
0.18226
0.17987
0.17743
0.174947
0.172423
0.169864
0.167275
0.164658
0.162019
0.15936
0.156687
0.154001
0.151307
0.148608
0.145907
0.143207
0.14051
0.137819
0.135137
0.132466
0.129809
0.127166
0.124542
0.121936
0.119351
0.11679
0.114252
0.11174
0.109254
0.106797
0.104369
0.101971
0.0996044
0.0972696
0.0949676
0.0926989
0.0904643
0.0882641
0.0860989
0.0839691
0.0818749
0.0798167
0.0777946
0.0758088
0.0738594
0.0719464
0.0700698
0.0682296
0.0664257
0.0646579
0.0629262
0.0612303
0.0595699
0.0579449
0.0563549
0.0547996
0.0532786
0.0517917
0.0503385
0.0489184
0.0475312
0.0461765
0.0448536
0.0435623
0.042302
0.0410723
0.0398727
0.0387026
0.0375617
0.0364493
0.035365
0.0343084
0.0332788
0.0322757
0.0312988
0.0303473
0.029421
0.0285191
0.0276413
0.026787
0.0259558
0.0251471
0.0243604
0.0235953
0.0228513
0.0221279
0.0214247
0.0207411
0.0200768
0.0194312
0.018804
0.0181947
0.0176028
0.017028
0.0164698
0.0159279
0.0154017
0.014891
0.0143953
0.0139143
0.0134475
0.0129947
0.0125555
0.0121294
0.0117163
0.0113156
0.0109272
0.0105507
0.0101857
0.00983197
0.00948921
0.00915711
0.00883537
0.00852373
0.00822191
0.00792963
0.00764663
0.00737266
0.00710746
0.00685079
0.0066024
0.00636208
0.00612958
0.00590468
0.00568717
0.00547684
0.00527347
0.00507687
0.00488683
0.00470318
0.00452571
0.00435425
0.00418862
0.00402864
0.00387415
0.00372499
0.00358098
0.00344198
0.00330782
0.00317837
0.00305348
0.00293301
0.00281682
0.00270478
0.00259675
0.00249261
0.00239224
0.00229551
0.00220232
0.00211255
0.00202608
0.00194281
0.00186263
0.00178545
0.00171117
0.00163968
0.0015709
0.00150473
0.0014411
0.0013799
0.00132106
0.00126451
0.00121015
0.00115791
0.00110773
0.00105953
0.00101323
0.000968783
0.00092611
0.00088515
0.000845843
0.000808129
0.000771951
0.000737253
0.00070398
0.000672081
0.000641505
0.000612202
0.000584125
0.000557228
0.000531467
0.000506798
0.000483181
0.000460574
0.000438938
0.000418237
0.000398434
0.000379493
0.000361382
0.000344066
0.000327515
0.000311698
0.000296585
0.000282149
0.000268361
0.000255196
0.000242627
0.000230631
0.000219183
0.000208262
0.000197844
0.000187908
0.000178436
0.000169405
0.000160799
0.000152598
0.000144786
0.000137345
0.00013026
0.000123514
0.000117093
0.000110983
0.000105169
9.96391e-05
9.438e-05
8.93796e-05
8.46262e-05
8.01086e-05
7.5816e-05
7.17382e-05
6.78652e-05
6.41875e-05
6.06961e-05
5.73823e-05
5.42378e-05
5.12545e-05
4.84248e-05
4.57414e-05
4.31973e-05
4.07859e-05
3.85007e-05
3.63355e-05
3.42846e-05
3.23424e-05
3.05035e-05
2.87628e-05
2.71155e-05
2.55568e-05
2.40824e-05
2.26881e-05
2.13697e-05
2.01234e-05
1.89456e-05
1.78327e-05
1.67814e-05
1.57886e-05
1.48511e-05
1.39662e-05
1.3131e-05
1.2343e-05
1.15996e-05
1.08985e-05
1.02375e-05
9.61439e-06
9.02712e-06
8.47379e-06
7.95255e-06
7.46166e-06
6.99946e-06
6.56437e-06
6.15491e-06
5.76966e-06
5.40726e-06
5.06646e-06
4.74603e-06
4.44483e-06
4.16177e-06
3.89583e-06
3.64603e-06
3.41145e-06
3.19121e-06
2.98448e-06
2.79049e-06
2.6085e-06
2.4378e-06
2.27773e-06
2.12766e-06
1.98701e-06
1.85522e-06
1.73176e-06
1.61613e-06
1.50786e-06
1.4065e-06
1.31165e-06
1.2229e-06
1.13988e-06
1.06224e-06
9.8965e-07