/*--------------------------------*- C++ -*----------------------------------*\
  =========                 |
  \\      /  F ield         | OpenFOAM: The Open Source CFD Toolbox
   \\    /   O peration     | Website:  https://openfoam.org
    \\  /    A nd           | Version:  dev
     \\/     M anipulation  |
\*---------------------------------------------------------------------------*/
FoamFile
{
    format      ascii;
    class       volScalarField;
    location    "0.78";
    object      Exp1;
}
// * * * * * * * * * * * * * * * * * * * * * * * * * * * * * * * * * * * * * //

dimensions      [0 0 0 0 0 0 0];

internalField   uniform 0;

boundaryField
{
    frontAndBack
    {
        type            empty;
    }
    inlet
    {
        type            calculated;
        value           uniform 0;
    }
    outlet
    {
        type            calculated;
        value           uniform 0;
    }
    substrate
    {
        type            calculated;
        value           nonuniform List<scalar> 
400
(
1.45987e-19
4.64975e-19
8.15917e-19
1.19734e-18
1.6095e-18
2.05383e-18
2.53174e-18
3.04468e-18
3.5943e-18
4.18239e-18
4.81086e-18
5.48169e-18
6.19696e-18
6.9588e-18
7.76939e-18
8.63098e-18
9.54584e-18
1.05163e-17
1.15447e-17
1.26334e-17
1.37849e-17
1.50016e-17
1.62861e-17
1.76409e-17
1.90687e-17
2.05721e-17
2.21539e-17
2.38168e-17
2.55637e-17
2.73974e-17
2.9321e-17
3.13376e-17
3.34501e-17
3.56619e-17
3.79761e-17
4.03961e-17
4.29253e-17
4.55672e-17
4.83254e-17
5.12036e-17
5.42056e-17
5.73351e-17
6.05962e-17
6.39928e-17
6.75292e-17
7.12096e-17
7.50384e-17
7.90201e-17
8.31592e-17
8.74605e-17
9.19287e-17
9.6569e-17
1.01386e-16
1.06386e-16
1.11573e-16
1.16954e-16
1.22533e-16
1.28317e-16
1.34312e-16
1.40524e-16
1.46958e-16
1.53622e-16
1.60523e-16
1.67666e-16
1.7506e-16
1.82711e-16
1.90627e-16
1.98815e-16
2.07283e-16
2.1604e-16
2.25093e-16
2.34452e-16
2.44124e-16
2.5412e-16
2.64447e-16
2.75116e-16
2.86137e-16
2.9752e-16
3.09274e-16
3.21411e-16
3.33941e-16
3.46876e-16
3.60228e-16
3.74008e-16
3.88229e-16
4.02902e-16
4.18042e-16
4.33662e-16
4.49774e-16
4.66394e-16
4.83535e-16
5.01213e-16
5.19444e-16
5.38241e-16
5.57623e-16
5.77605e-16
5.98205e-16
6.19441e-16
6.41329e-16
6.6389e-16
6.87142e-16
7.11106e-16
7.358e-16
7.61246e-16
7.87466e-16
8.1448e-16
8.42313e-16
8.70988e-16
9.00527e-16
9.30956e-16
9.623e-16
9.94586e-16
1.02784e-15
1.06209e-15
1.09736e-15
1.13368e-15
1.17109e-15
1.2096e-15
1.24927e-15
1.29011e-15
1.33216e-15
1.37545e-15
1.42002e-15
1.46591e-15
1.51314e-15
1.56177e-15
1.61183e-15
1.66336e-15
1.7164e-15
1.77099e-15
1.82718e-15
1.88501e-15
1.94453e-15
2.00578e-15
2.06882e-15
2.13369e-15
2.20044e-15
2.26913e-15
2.33981e-15
2.41254e-15
2.48737e-15
2.56437e-15
2.64358e-15
2.72508e-15
2.80893e-15
2.89519e-15
2.98393e-15
3.07521e-15
3.16912e-15
3.26571e-15
3.36507e-15
3.46726e-15
3.57238e-15
3.6805e-15
3.79169e-15
3.90606e-15
4.02367e-15
4.14463e-15
4.26902e-15
4.39693e-15
4.52847e-15
4.66373e-15
4.80281e-15
4.94582e-15
5.09286e-15
5.24405e-15
5.39948e-15
5.55929e-15
5.72359e-15
5.8925e-15
6.06614e-15
6.24463e-15
6.42812e-15
6.61674e-15
6.81062e-15
7.0099e-15
7.21473e-15
7.42525e-15
7.64163e-15
7.864e-15
8.09254e-15
8.32741e-15
8.56877e-15
8.81679e-15
9.07166e-15
9.33355e-15
9.60265e-15
9.87915e-15
1.01632e-14
1.04551e-14
1.0755e-14
1.10631e-14
1.13796e-14
1.17047e-14
1.20387e-14
1.23818e-14
1.27342e-14
1.30962e-14
1.3468e-14
1.38499e-14
1.42421e-14
1.46449e-14
1.50586e-14
1.54834e-14
1.59197e-14
1.63677e-14
1.68277e-14
1.73e-14
1.7785e-14
1.82829e-14
1.87942e-14
1.9319e-14
1.98579e-14
2.0411e-14
2.09789e-14
2.15618e-14
2.21601e-14
2.27742e-14
2.34046e-14
2.40515e-14
2.47155e-14
2.5397e-14
2.60963e-14
2.68139e-14
2.75503e-14
2.83059e-14
2.90812e-14
2.98768e-14
3.0693e-14
3.15303e-14
3.23894e-14
3.32707e-14
3.41748e-14
3.51022e-14
3.60534e-14
3.70291e-14
3.80299e-14
3.90562e-14
4.01089e-14
4.11884e-14
4.22954e-14
4.34306e-14
4.45946e-14
4.57881e-14
4.70119e-14
4.82665e-14
4.95528e-14
5.08715e-14
5.22234e-14
5.36091e-14
5.50296e-14
5.64855e-14
5.79778e-14
5.95072e-14
6.10747e-14
6.2681e-14
6.43271e-14
6.60139e-14
6.77423e-14
6.95132e-14
7.13277e-14
7.31867e-14
7.50911e-14
7.70421e-14
7.90406e-14
8.10877e-14
8.31846e-14
8.53322e-14
8.75318e-14
8.97844e-14
9.20912e-14
9.44535e-14
9.68725e-14
9.93492e-14
1.01885e-13
1.04481e-13
1.0714e-13
1.09861e-13
1.12646e-13
1.15497e-13
1.18416e-13
1.21403e-13
1.2446e-13
1.27588e-13
1.3079e-13
1.34066e-13
1.37418e-13
1.40848e-13
1.44357e-13
1.47947e-13
1.5162e-13
1.55377e-13
1.5922e-13
1.63151e-13
1.67172e-13
1.71283e-13
1.75488e-13
1.79788e-13
1.84185e-13
1.88681e-13
1.93278e-13
1.97977e-13
2.02781e-13
2.07692e-13
2.12712e-13
2.17843e-13
2.23087e-13
2.28447e-13
2.33924e-13
2.3952e-13
2.45239e-13
2.51082e-13
2.57051e-13
2.63149e-13
2.69378e-13
2.75741e-13
2.8224e-13
2.88878e-13
2.95656e-13
3.02577e-13
3.09645e-13
3.1686e-13
3.24227e-13
3.31747e-13
3.39423e-13
3.47257e-13
3.55253e-13
3.63413e-13
3.71739e-13
3.80233e-13
3.889e-13
3.9774e-13
4.06758e-13
4.15954e-13
4.25333e-13
4.34896e-13
4.44646e-13
4.54585e-13
4.64716e-13
4.75042e-13
4.85564e-13
4.96284e-13
5.07206e-13
5.1833e-13
5.2966e-13
5.41196e-13
5.52941e-13
5.64896e-13
5.77062e-13
5.89442e-13
6.02035e-13
6.14843e-13
6.27866e-13
6.41104e-13
6.54558e-13
6.68226e-13
6.82109e-13
6.96206e-13
7.10513e-13
7.2503e-13
7.39754e-13
7.54681e-13
7.69808e-13
7.85129e-13
8.0064e-13
8.16335e-13
8.32205e-13
8.48242e-13
8.64438e-13
8.80781e-13
8.97259e-13
9.13859e-13
9.30566e-13
9.47362e-13
9.64229e-13
9.81145e-13
9.98087e-13
1.01503e-12
1.03194e-12
1.0488e-12
1.06556e-12
1.08219e-12
1.09864e-12
1.11487e-12
1.13082e-12
1.14645e-12
1.16168e-12
1.17646e-12
1.19071e-12
1.20435e-12
1.2173e-12
1.22945e-12
1.24072e-12
1.25099e-12
1.26015e-12
1.26808e-12
1.27465e-12
1.27974e-12
1.28323e-12
1.28502e-12
)
;
    }
    Wall
    {
        type            calculated;
        value           nonuniform List<scalar> 
400
(
1.45984e-19
4.64966e-19
8.15901e-19
1.19732e-18
1.60947e-18
2.05379e-18
2.53167e-18
3.04459e-18
3.5942e-18
4.18227e-18
4.81071e-18
5.48151e-18
6.19674e-18
6.95855e-18
7.7691e-18
8.63065e-18
9.54547e-18
1.05159e-17
1.15442e-17
1.26329e-17
1.37843e-17
1.5001e-17
1.62854e-17
1.76402e-17
1.90679e-17
2.05713e-17
2.2153e-17
2.38158e-17
2.55626e-17
2.73963e-17
2.93199e-17
3.13363e-17
3.34488e-17
3.56605e-17
3.79746e-17
4.03946e-17
4.29237e-17
4.55656e-17
4.83237e-17
5.12018e-17
5.42037e-17
5.73331e-17
6.0594e-17
6.39906e-17
6.75269e-17
7.12072e-17
7.50359e-17
7.90174e-17
8.31564e-17
8.74575e-17
9.19257e-17
9.65658e-17
1.01383e-16
1.06383e-16
1.1157e-16
1.1695e-16
1.22529e-16
1.28313e-16
1.34308e-16
1.40519e-16
1.46954e-16
1.53618e-16
1.60518e-16
1.67661e-16
1.75055e-16
1.82705e-16
1.90621e-16
1.98809e-16
2.07277e-16
2.16034e-16
2.25087e-16
2.34445e-16
2.44117e-16
2.54112e-16
2.6444e-16
2.75109e-16
2.86129e-16
2.97511e-16
3.09265e-16
3.21402e-16
3.33932e-16
3.46867e-16
3.60218e-16
3.73998e-16
3.88218e-16
4.02891e-16
4.18031e-16
4.3365e-16
4.49762e-16
4.66381e-16
4.83522e-16
5.01199e-16
5.19429e-16
5.38226e-16
5.57607e-16
5.77589e-16
5.98189e-16
6.19423e-16
6.41311e-16
6.63872e-16
6.87123e-16
7.11086e-16
7.35779e-16
7.61225e-16
7.87444e-16
8.14458e-16
8.4229e-16
8.70964e-16
9.00502e-16
9.30931e-16
9.62274e-16
9.94558e-16
1.02781e-15
1.06206e-15
1.09733e-15
1.13365e-15
1.17105e-15
1.20957e-15
1.24923e-15
1.29007e-15
1.33212e-15
1.37541e-15
1.41998e-15
1.46587e-15
1.5131e-15
1.56173e-15
1.61179e-15
1.66332e-15
1.71635e-15
1.77094e-15
1.82713e-15
1.88496e-15
1.94448e-15
2.00573e-15
2.06876e-15
2.13363e-15
2.20038e-15
2.26907e-15
2.33975e-15
2.41248e-15
2.48731e-15
2.5643e-15
2.64351e-15
2.72501e-15
2.80886e-15
2.89511e-15
2.98385e-15
3.07513e-15
3.16903e-15
3.26562e-15
3.36498e-15
3.46717e-15
3.57229e-15
3.6804e-15
3.7916e-15
3.90595e-15
4.02357e-15
4.14452e-15
4.26891e-15
4.39682e-15
4.52835e-15
4.66361e-15
4.80269e-15
4.94569e-15
5.09273e-15
5.24391e-15
5.39935e-15
5.55915e-15
5.72344e-15
5.89234e-15
6.06598e-15
6.24447e-15
6.42796e-15
6.61657e-15
6.81044e-15
7.00972e-15
7.21454e-15
7.42506e-15
7.64143e-15
7.8638e-15
8.09233e-15
8.32719e-15
8.56855e-15
8.81657e-15
9.07143e-15
9.33331e-15
9.60241e-15
9.8789e-15
1.0163e-14
1.04549e-14
1.07547e-14
1.10628e-14
1.13793e-14
1.17044e-14
1.20384e-14
1.23815e-14
1.27339e-14
1.30959e-14
1.34677e-14
1.38496e-14
1.42418e-14
1.46446e-14
1.50582e-14
1.5483e-14
1.59193e-14
1.63673e-14
1.68273e-14
1.72996e-14
1.77846e-14
1.82825e-14
1.87937e-14
1.93186e-14
1.98574e-14
2.04105e-14
2.09784e-14
2.15612e-14
2.21595e-14
2.27737e-14
2.3404e-14
2.40509e-14
2.47149e-14
2.53963e-14
2.60956e-14
2.68132e-14
2.75496e-14
2.83052e-14
2.90805e-14
2.9876e-14
3.06922e-14
3.15295e-14
3.23886e-14
3.32699e-14
3.41739e-14
3.51013e-14
3.60525e-14
3.70282e-14
3.80289e-14
3.90553e-14
4.01079e-14
4.11873e-14
4.22943e-14
4.34295e-14
4.45935e-14
4.5787e-14
4.70107e-14
4.82653e-14
4.95516e-14
5.08703e-14
5.22221e-14
5.36078e-14
5.50282e-14
5.64841e-14
5.79763e-14
5.95057e-14
6.10731e-14
6.26794e-14
6.43255e-14
6.60123e-14
6.77406e-14
6.95115e-14
7.13259e-14
7.31848e-14
7.50892e-14
7.70402e-14
7.90386e-14
8.10857e-14
8.31825e-14
8.53301e-14
8.75296e-14
8.97822e-14
9.2089e-14
9.44512e-14
9.68701e-14
9.93468e-14
1.01883e-13
1.04479e-13
1.07137e-13
1.09858e-13
1.12643e-13
1.15494e-13
1.18413e-13
1.214e-13
1.24457e-13
1.27585e-13
1.30786e-13
1.34063e-13
1.37415e-13
1.40845e-13
1.44354e-13
1.47944e-13
1.51616e-13
1.55373e-13
1.59216e-13
1.63147e-13
1.67167e-13
1.71279e-13
1.75484e-13
1.79784e-13
1.84181e-13
1.88676e-13
1.93273e-13
1.97972e-13
2.02776e-13
2.07687e-13
2.12707e-13
2.17838e-13
2.23082e-13
2.28441e-13
2.33918e-13
2.39514e-13
2.45233e-13
2.51076e-13
2.57045e-13
2.63143e-13
2.69372e-13
2.75735e-13
2.82233e-13
2.88871e-13
2.95649e-13
3.0257e-13
3.09637e-13
3.16853e-13
3.24219e-13
3.31739e-13
3.39415e-13
3.47249e-13
3.55245e-13
3.63404e-13
3.7173e-13
3.80224e-13
3.88891e-13
3.97731e-13
4.06748e-13
4.15945e-13
4.25323e-13
4.34886e-13
4.44636e-13
4.54575e-13
4.64706e-13
4.75031e-13
4.85553e-13
4.96273e-13
5.07194e-13
5.18319e-13
5.29648e-13
5.41184e-13
5.52928e-13
5.64883e-13
5.77049e-13
5.89428e-13
6.02021e-13
6.14829e-13
6.27851e-13
6.41089e-13
6.54543e-13
6.68211e-13
6.82094e-13
6.9619e-13
7.10497e-13
7.25014e-13
7.39737e-13
7.54664e-13
7.69791e-13
7.85112e-13
8.00623e-13
8.16317e-13
8.32187e-13
8.48224e-13
8.64419e-13
8.80762e-13
8.9724e-13
9.1384e-13
9.30546e-13
9.47342e-13
9.64208e-13
9.81124e-13
9.98066e-13
1.01501e-12
1.03192e-12
1.04878e-12
1.06554e-12
1.08216e-12
1.09861e-12
1.11484e-12
1.1308e-12
1.14643e-12
1.16166e-12
1.17644e-12
1.19069e-12
1.20433e-12
1.21728e-12
1.22943e-12
1.2407e-12
1.25097e-12
1.26013e-12
1.26805e-12
1.27463e-12
1.27972e-12
1.28322e-12
1.285e-12
)
;
    }
}


// ************************************************************************* //
