/*--------------------------------*- C++ -*----------------------------------*\
  =========                 |
  \\      /  F ield         | OpenFOAM: The Open Source CFD Toolbox
   \\    /   O peration     | Website:  https://openfoam.org
    \\  /    A nd           | Version:  dev
     \\/     M anipulation  |
\*---------------------------------------------------------------------------*/
FoamFile
{
    format      ascii;
    class       volScalarField;
    location    "0.78";
    object      N1;
}
// * * * * * * * * * * * * * * * * * * * * * * * * * * * * * * * * * * * * * //

dimensions      [0 0 0 0 0 0 0];

internalField   nonuniform List<scalar> 
8000
(
1.1084e-18
3.5312e-18
6.19751e-18
9.09625e-18
1.22294e-17
1.56079e-17
1.92425e-17
2.31444e-17
2.73261e-17
3.18015e-17
3.6585e-17
4.1692e-17
4.71383e-17
5.29403e-17
5.91148e-17
6.56789e-17
7.265e-17
8.00461e-17
8.78852e-17
9.61857e-17
1.04966e-16
1.14246e-16
1.24044e-16
1.34381e-16
1.45276e-16
1.5675e-16
1.68824e-16
1.81519e-16
1.94858e-16
2.08862e-16
2.23555e-16
2.38961e-16
2.55102e-16
2.72004e-16
2.89691e-16
3.0819e-16
3.27527e-16
3.47728e-16
3.68822e-16
3.90836e-16
4.138e-16
4.37743e-16
4.62696e-16
4.8869e-16
5.15757e-16
5.4393e-16
5.73243e-16
6.03729e-16
6.35425e-16
6.68367e-16
7.02592e-16
7.38138e-16
7.75045e-16
8.13352e-16
8.53103e-16
8.94337e-16
9.37101e-16
9.81437e-16
1.02739e-15
1.07502e-15
1.12435e-15
1.17546e-15
1.22837e-15
1.28316e-15
1.33987e-15
1.39856e-15
1.45929e-15
1.52211e-15
1.58708e-15
1.65428e-15
1.72375e-15
1.79557e-15
1.86981e-15
1.94652e-15
2.0258e-15
2.1077e-15
2.1923e-15
2.27969e-15
2.36993e-15
2.46312e-15
2.55934e-15
2.65867e-15
2.7612e-15
2.86703e-15
2.97624e-15
3.08895e-15
3.20523e-15
3.32521e-15
3.44897e-15
3.57664e-15
3.70833e-15
3.84414e-15
3.98419e-15
4.12862e-15
4.27753e-15
4.43107e-15
4.58935e-15
4.75252e-15
4.92072e-15
5.09409e-15
5.27277e-15
5.45693e-15
5.6467e-15
5.84227e-15
6.04378e-15
6.2514e-15
6.46532e-15
6.68571e-15
6.91276e-15
7.14665e-15
7.38757e-15
7.63574e-15
7.89135e-15
8.15461e-15
8.42574e-15
8.70497e-15
8.99251e-15
9.28862e-15
9.59353e-15
9.90749e-15
1.02307e-14
1.05636e-14
1.09062e-14
1.1259e-14
1.16222e-14
1.19961e-14
1.23809e-14
1.27771e-14
1.31849e-14
1.36046e-14
1.40367e-14
1.44813e-14
1.49389e-14
1.54099e-14
1.58946e-14
1.63933e-14
1.69066e-14
1.74348e-14
1.79783e-14
1.85375e-14
1.91129e-14
1.9705e-14
2.03141e-14
2.09408e-14
2.15855e-14
2.22488e-14
2.29312e-14
2.36331e-14
2.43552e-14
2.5098e-14
2.5862e-14
2.66479e-14
2.74562e-14
2.82876e-14
2.91427e-14
3.00222e-14
3.09266e-14
3.18568e-14
3.28133e-14
3.3797e-14
3.48085e-14
3.58487e-14
3.69182e-14
3.8018e-14
3.91488e-14
4.03114e-14
4.15068e-14
4.27357e-14
4.39992e-14
4.52982e-14
4.66335e-14
4.80062e-14
4.94173e-14
5.08678e-14
5.23588e-14
5.38914e-14
5.54666e-14
5.70856e-14
5.87496e-14
6.04598e-14
6.22174e-14
6.40236e-14
6.58798e-14
6.77872e-14
6.97473e-14
7.17614e-14
7.38309e-14
7.59573e-14
7.81421e-14
8.03868e-14
8.2693e-14
8.50623e-14
8.74964e-14
8.99969e-14
9.25656e-14
9.52042e-14
9.79145e-14
1.00698e-13
1.03558e-13
1.06495e-13
1.09511e-13
1.12609e-13
1.15791e-13
1.19058e-13
1.22413e-13
1.25858e-13
1.29396e-13
1.33029e-13
1.36758e-13
1.40588e-13
1.4452e-13
1.48556e-13
1.527e-13
1.56954e-13
1.61322e-13
1.65805e-13
1.70406e-13
1.75129e-13
1.79977e-13
1.84953e-13
1.90059e-13
1.953e-13
2.00678e-13
2.06197e-13
2.11861e-13
2.17672e-13
2.23635e-13
2.29753e-13
2.3603e-13
2.4247e-13
2.49077e-13
2.55855e-13
2.62808e-13
2.6994e-13
2.77256e-13
2.8476e-13
2.92457e-13
3.00351e-13
3.08446e-13
3.16748e-13
3.25262e-13
3.33993e-13
3.42945e-13
3.52124e-13
3.61536e-13
3.71185e-13
3.81078e-13
3.9122e-13
4.01616e-13
4.12274e-13
4.23198e-13
4.34396e-13
4.45873e-13
4.57635e-13
4.6969e-13
4.82044e-13
4.94704e-13
5.07677e-13
5.2097e-13
5.3459e-13
5.48544e-13
5.62841e-13
5.77488e-13
5.92493e-13
6.07863e-13
6.23607e-13
6.39734e-13
6.56251e-13
6.73167e-13
6.90492e-13
7.08234e-13
7.26402e-13
7.45005e-13
7.64054e-13
7.83557e-13
8.03525e-13
8.23967e-13
8.44895e-13
8.66317e-13
8.88246e-13
9.1069e-13
9.33663e-13
9.57174e-13
9.81235e-13
1.00586e-12
1.03105e-12
1.05684e-12
1.08321e-12
1.1102e-12
1.13781e-12
1.16606e-12
1.19496e-12
1.22451e-12
1.25474e-12
1.28566e-12
1.31729e-12
1.34963e-12
1.3827e-12
1.41651e-12
1.45109e-12
1.48644e-12
1.52258e-12
1.55953e-12
1.5973e-12
1.63591e-12
1.67537e-12
1.7157e-12
1.75692e-12
1.79905e-12
1.84209e-12
1.88607e-12
1.931e-12
1.97691e-12
2.02381e-12
2.07172e-12
2.12066e-12
2.17064e-12
2.22169e-12
2.27382e-12
2.32705e-12
2.3814e-12
2.4369e-12
2.49355e-12
2.55139e-12
2.61042e-12
2.67068e-12
2.73217e-12
2.79493e-12
2.85896e-12
2.92429e-12
2.99094e-12
3.05894e-12
3.12829e-12
3.19902e-12
3.27115e-12
3.34469e-12
3.41968e-12
3.49612e-12
3.57404e-12
3.65345e-12
3.73437e-12
3.81682e-12
3.90082e-12
3.98638e-12
4.07351e-12
4.16223e-12
4.25256e-12
4.3445e-12
4.43808e-12
4.53328e-12
4.63014e-12
4.72864e-12
4.8288e-12
4.93061e-12
5.03408e-12
5.13921e-12
5.24598e-12
5.35439e-12
5.46443e-12
5.57608e-12
5.68931e-12
5.80412e-12
5.92045e-12
6.03829e-12
6.15758e-12
6.27828e-12
6.40034e-12
6.52368e-12
6.64824e-12
6.77393e-12
6.90066e-12
7.02833e-12
7.15682e-12
7.286e-12
7.41571e-12
7.54582e-12
7.67612e-12
7.80642e-12
7.93651e-12
8.06614e-12
8.19503e-12
8.32291e-12
8.44943e-12
8.57424e-12
8.69696e-12
8.81714e-12
8.93432e-12
9.04799e-12
9.15758e-12
9.26249e-12
9.36204e-12
9.45553e-12
9.54218e-12
9.62116e-12
9.69159e-12
9.75256e-12
9.80311e-12
9.84228e-12
9.86915e-12
9.88289e-12
1.08581e-18
3.48086e-18
6.12468e-18
9.01352e-18
1.21471e-17
1.55329e-17
1.91802e-17
2.30997e-17
2.73041e-17
3.18069e-17
3.66229e-17
4.17676e-17
4.72573e-17
5.31087e-17
5.93389e-17
6.59656e-17
7.30065e-17
8.04801e-17
8.84048e-17
9.67995e-17
1.05684e-16
1.15076e-16
1.24998e-16
1.35469e-16
1.4651e-16
1.58142e-16
1.70386e-16
1.83266e-16
1.96803e-16
2.1102e-16
2.25942e-16
2.41593e-16
2.57996e-16
2.75178e-16
2.93165e-16
3.11982e-16
3.31658e-16
3.5222e-16
3.73697e-16
3.96117e-16
4.19512e-16
4.43911e-16
4.69346e-16
4.95849e-16
5.23454e-16
5.52194e-16
5.82105e-16
6.13221e-16
6.4558e-16
6.79218e-16
7.14175e-16
7.5049e-16
7.88203e-16
8.27357e-16
8.67994e-16
9.10157e-16
9.53892e-16
9.99245e-16
1.04626e-15
1.095e-15
1.1455e-15
1.19781e-15
1.25199e-15
1.3081e-15
1.36618e-15
1.42631e-15
1.48852e-15
1.5529e-15
1.61949e-15
1.68836e-15
1.75958e-15
1.83322e-15
1.90935e-15
1.98803e-15
2.06934e-15
2.15336e-15
2.24016e-15
2.32982e-15
2.42243e-15
2.51807e-15
2.61683e-15
2.7188e-15
2.82406e-15
2.93272e-15
3.04486e-15
3.1606e-15
3.28003e-15
3.40325e-15
3.53038e-15
3.66154e-15
3.79682e-15
3.93635e-15
4.08026e-15
4.22867e-15
4.3817e-15
4.53948e-15
4.70217e-15
4.86988e-15
5.04277e-15
5.22099e-15
5.40468e-15
5.594e-15
5.78911e-15
5.99019e-15
6.19738e-15
6.41088e-15
6.63086e-15
6.8575e-15
7.091e-15
7.33154e-15
7.57933e-15
7.83458e-15
8.09749e-15
8.36828e-15
8.64718e-15
8.93442e-15
9.23022e-15
9.53484e-15
9.84853e-15
1.01715e-14
1.05041e-14
1.08465e-14
1.11991e-14
1.15621e-14
1.19358e-14
1.23205e-14
1.27165e-14
1.31242e-14
1.35438e-14
1.39758e-14
1.44203e-14
1.48779e-14
1.53489e-14
1.58336e-14
1.63324e-14
1.68457e-14
1.7374e-14
1.79176e-14
1.8477e-14
1.90525e-14
1.96448e-14
2.02542e-14
2.08811e-14
2.15262e-14
2.21898e-14
2.28726e-14
2.3575e-14
2.42975e-14
2.50408e-14
2.58054e-14
2.65919e-14
2.74009e-14
2.8233e-14
2.90889e-14
2.99691e-14
3.08745e-14
3.18056e-14
3.27631e-14
3.37479e-14
3.47605e-14
3.58019e-14
3.68728e-14
3.79739e-14
3.91061e-14
4.02703e-14
4.14673e-14
4.26979e-14
4.39632e-14
4.52641e-14
4.66014e-14
4.79762e-14
4.93895e-14
5.08424e-14
5.23358e-14
5.3871e-14
5.54489e-14
5.70707e-14
5.87377e-14
6.0451e-14
6.22119e-14
6.40215e-14
6.58813e-14
6.77925e-14
6.97565e-14
7.17747e-14
7.38485e-14
7.59795e-14
7.8169e-14
8.04186e-14
8.273e-14
8.51047e-14
8.75444e-14
9.00507e-14
9.26255e-14
9.52705e-14
9.79875e-14
1.00778e-13
1.03645e-13
1.0659e-13
1.09614e-13
1.1272e-13
1.1591e-13
1.19186e-13
1.2255e-13
1.26005e-13
1.29553e-13
1.33196e-13
1.36937e-13
1.40778e-13
1.44722e-13
1.4877e-13
1.52927e-13
1.57195e-13
1.61576e-13
1.66073e-13
1.7069e-13
1.75428e-13
1.80292e-13
1.85285e-13
1.90409e-13
1.95667e-13
2.01065e-13
2.06603e-13
2.12287e-13
2.18119e-13
2.24104e-13
2.30245e-13
2.36546e-13
2.43011e-13
2.49643e-13
2.56447e-13
2.63428e-13
2.70588e-13
2.77934e-13
2.85468e-13
2.93197e-13
3.01123e-13
3.09253e-13
3.17591e-13
3.26141e-13
3.3491e-13
3.43901e-13
3.53121e-13
3.62575e-13
3.72269e-13
3.82207e-13
3.92396e-13
4.02841e-13
4.13549e-13
4.24526e-13
4.35778e-13
4.47311e-13
4.59131e-13
4.71246e-13
4.83663e-13
4.96387e-13
5.09427e-13
5.22788e-13
5.3648e-13
5.50508e-13
5.64882e-13
5.79607e-13
5.94694e-13
6.10149e-13
6.2598e-13
6.42197e-13
6.58808e-13
6.75821e-13
6.93245e-13
7.1109e-13
7.29365e-13
7.48079e-13
7.67242e-13
7.86863e-13
8.06952e-13
8.27521e-13
8.48578e-13
8.70134e-13
8.92201e-13
9.14789e-13
9.3791e-13
9.61573e-13
9.85792e-13
1.01058e-12
1.03594e-12
1.0619e-12
1.08845e-12
1.11563e-12
1.14343e-12
1.17187e-12
1.20097e-12
1.23074e-12
1.26118e-12
1.29233e-12
1.32418e-12
1.35676e-12
1.39007e-12
1.42414e-12
1.45898e-12
1.4946e-12
1.53102e-12
1.56825e-12
1.60631e-12
1.64523e-12
1.685e-12
1.72565e-12
1.7672e-12
1.80967e-12
1.85306e-12
1.89741e-12
1.94272e-12
1.98901e-12
2.03631e-12
2.08463e-12
2.13399e-12
2.18441e-12
2.2359e-12
2.2885e-12
2.34221e-12
2.39705e-12
2.45305e-12
2.51023e-12
2.5686e-12
2.62819e-12
2.68902e-12
2.7511e-12
2.81446e-12
2.87912e-12
2.9451e-12
3.01241e-12
3.08109e-12
3.15115e-12
3.22261e-12
3.29549e-12
3.36981e-12
3.4456e-12
3.52287e-12
3.60164e-12
3.68193e-12
3.76376e-12
3.84715e-12
3.93211e-12
4.01867e-12
4.10684e-12
4.19663e-12
4.28807e-12
4.38116e-12
4.47592e-12
4.57235e-12
4.67047e-12
4.77029e-12
4.87182e-12
4.97505e-12
5.07999e-12
5.18664e-12
5.295e-12
5.40505e-12
5.51681e-12
5.63024e-12
5.74533e-12
5.86207e-12
5.98043e-12
6.10037e-12
6.22186e-12
6.34486e-12
6.46932e-12
6.59518e-12
6.72238e-12
6.85084e-12
6.98047e-12
7.11119e-12
7.24288e-12
7.37543e-12
7.50871e-12
7.64255e-12
7.77681e-12
7.91129e-12
8.04579e-12
8.18009e-12
8.31393e-12
8.44705e-12
8.57913e-12
8.70985e-12
8.83884e-12
8.9657e-12
9.08998e-12
9.21121e-12
9.32885e-12
9.44234e-12
9.55104e-12
9.65426e-12
9.75128e-12
9.8413e-12
9.92344e-12
9.99682e-12
1.00604e-11
1.01133e-11
1.01544e-11
1.01828e-11
1.01974e-11
1.06548e-18
3.41827e-18
6.01305e-18
8.85748e-18
1.19557e-17
1.53139e-17
1.89403e-17
2.28448e-17
2.70393e-17
3.15373e-17
3.63532e-17
4.15026e-17
4.70019e-17
5.28678e-17
5.91178e-17
6.57696e-17
7.28414e-17
8.03517e-17
8.83196e-17
9.67641e-17
1.05705e-16
1.15162e-16
1.25156e-16
1.35708e-16
1.46838e-16
1.58569e-16
1.70922e-16
1.83921e-16
1.97588e-16
2.11948e-16
2.27024e-16
2.42841e-16
2.59425e-16
2.76802e-16
2.94999e-16
3.14042e-16
3.33959e-16
3.54781e-16
3.76534e-16
3.9925e-16
4.2296e-16
4.47695e-16
4.73487e-16
5.0037e-16
5.28377e-16
5.57543e-16
5.87904e-16
6.19497e-16
6.5236e-16
6.8653e-16
7.22047e-16
7.58952e-16
7.97287e-16
8.37094e-16
8.78418e-16
9.21303e-16
9.65795e-16
1.01194e-15
1.05979e-15
1.1094e-15
1.16081e-15
1.21407e-15
1.26926e-15
1.3264e-15
1.38558e-15
1.44683e-15
1.51024e-15
1.57585e-15
1.64373e-15
1.71394e-15
1.78656e-15
1.86166e-15
1.93929e-15
2.01955e-15
2.1025e-15
2.18822e-15
2.27679e-15
2.36829e-15
2.46281e-15
2.56043e-15
2.66124e-15
2.76534e-15
2.87281e-15
2.98376e-15
3.09828e-15
3.21648e-15
3.33845e-15
3.46432e-15
3.59419e-15
3.72817e-15
3.86639e-15
4.00895e-15
4.156e-15
4.30765e-15
4.46404e-15
4.6253e-15
4.79157e-15
4.963e-15
5.13972e-15
5.3219e-15
5.50969e-15
5.70324e-15
5.90273e-15
6.10831e-15
6.32017e-15
6.53848e-15
6.76343e-15
6.9952e-15
7.23399e-15
7.48e-15
7.73343e-15
7.99449e-15
8.2634e-15
8.54038e-15
8.82566e-15
9.11948e-15
9.42208e-15
9.7337e-15
1.00546e-14
1.03851e-14
1.07253e-14
1.10757e-14
1.14364e-14
1.18078e-14
1.21901e-14
1.25838e-14
1.2989e-14
1.34061e-14
1.38355e-14
1.42775e-14
1.47325e-14
1.52007e-14
1.56827e-14
1.61787e-14
1.66892e-14
1.72145e-14
1.77552e-14
1.83115e-14
1.8884e-14
1.94731e-14
2.00793e-14
2.07029e-14
2.13447e-14
2.20049e-14
2.26842e-14
2.3383e-14
2.41019e-14
2.48415e-14
2.56024e-14
2.6385e-14
2.71901e-14
2.80182e-14
2.887e-14
2.97461e-14
3.06472e-14
3.1574e-14
3.25271e-14
3.35074e-14
3.45155e-14
3.55522e-14
3.66183e-14
3.77145e-14
3.88418e-14
4.00009e-14
4.11928e-14
4.24182e-14
4.36781e-14
4.49735e-14
4.63053e-14
4.76745e-14
4.90821e-14
5.05291e-14
5.20165e-14
5.35456e-14
5.51173e-14
5.67329e-14
5.83935e-14
6.01002e-14
6.18544e-14
6.36573e-14
6.55102e-14
6.74145e-14
6.93714e-14
7.13823e-14
7.34488e-14
7.55723e-14
7.77542e-14
7.99961e-14
8.22997e-14
8.46664e-14
8.7098e-14
8.95961e-14
9.21626e-14
9.47991e-14
9.75075e-14
1.0029e-13
1.03148e-13
1.06083e-13
1.09098e-13
1.12195e-13
1.15376e-13
1.18643e-13
1.21997e-13
1.25443e-13
1.28981e-13
1.32614e-13
1.36345e-13
1.40176e-13
1.44109e-13
1.48148e-13
1.52294e-13
1.56551e-13
1.60921e-13
1.65408e-13
1.70014e-13
1.74741e-13
1.79595e-13
1.84576e-13
1.89689e-13
1.94937e-13
2.00322e-13
2.0585e-13
2.11522e-13
2.17343e-13
2.23317e-13
2.29446e-13
2.35736e-13
2.42189e-13
2.4881e-13
2.55603e-13
2.62572e-13
2.69722e-13
2.77056e-13
2.8458e-13
2.92297e-13
3.00212e-13
3.08331e-13
3.16658e-13
3.25198e-13
3.33956e-13
3.42938e-13
3.52148e-13
3.61592e-13
3.71275e-13
3.81204e-13
3.91384e-13
4.01821e-13
4.1252e-13
4.23489e-13
4.34733e-13
4.46258e-13
4.58072e-13
4.70181e-13
4.82591e-13
4.9531e-13
5.08345e-13
5.21702e-13
5.3539e-13
5.49415e-13
5.63786e-13
5.78511e-13
5.93596e-13
6.09051e-13
6.24883e-13
6.41102e-13
6.57715e-13
6.74732e-13
6.92162e-13
7.10013e-13
7.28294e-13
7.47017e-13
7.66189e-13
7.85821e-13
8.05923e-13
8.26505e-13
8.47578e-13
8.69152e-13
8.91237e-13
9.13846e-13
9.36988e-13
9.60676e-13
9.84922e-13
1.00974e-12
1.03513e-12
1.06112e-12
1.08771e-12
1.11492e-12
1.14277e-12
1.17125e-12
1.2004e-12
1.23021e-12
1.26071e-12
1.29191e-12
1.32382e-12
1.35646e-12
1.38984e-12
1.42398e-12
1.45889e-12
1.49458e-12
1.53108e-12
1.5684e-12
1.60656e-12
1.64556e-12
1.68544e-12
1.7262e-12
1.76786e-12
1.81044e-12
1.85396e-12
1.89843e-12
1.94387e-12
1.99031e-12
2.03775e-12
2.08622e-12
2.13574e-12
2.18633e-12
2.238e-12
2.29078e-12
2.34468e-12
2.39973e-12
2.45594e-12
2.51333e-12
2.57194e-12
2.63176e-12
2.69284e-12
2.75518e-12
2.81882e-12
2.88376e-12
2.95004e-12
3.01767e-12
3.08667e-12
3.15706e-12
3.22888e-12
3.30213e-12
3.37684e-12
3.45303e-12
3.53072e-12
3.60993e-12
3.69068e-12
3.77299e-12
3.85688e-12
3.94237e-12
4.02948e-12
4.11823e-12
4.20862e-12
4.30069e-12
4.39444e-12
4.48989e-12
4.58705e-12
4.68593e-12
4.78655e-12
4.88891e-12
4.99302e-12
5.09889e-12
5.20651e-12
5.3159e-12
5.42703e-12
5.53992e-12
5.65455e-12
5.77091e-12
5.88898e-12
6.00874e-12
6.13017e-12
6.25323e-12
6.3779e-12
6.50412e-12
6.63185e-12
6.76102e-12
6.89158e-12
7.02345e-12
7.15654e-12
7.29076e-12
7.426e-12
7.56213e-12
7.69903e-12
7.83655e-12
7.9745e-12
8.11272e-12
8.25099e-12
8.38908e-12
8.52674e-12
8.6637e-12
8.79964e-12
8.93422e-12
9.06709e-12
9.19782e-12
9.32597e-12
9.45104e-12
9.57251e-12
9.68978e-12
9.80221e-12
9.90911e-12
1.00097e-11
1.01032e-11
1.01887e-11
1.02652e-11
1.03318e-11
1.03873e-11
1.04307e-11
1.04608e-11
1.04763e-11
1.04526e-18
3.35269e-18
5.89353e-18
8.68096e-18
1.17245e-17
1.50323e-17
1.86132e-17
2.24776e-17
2.6637e-17
3.11048e-17
3.58953e-17
4.10239e-17
4.65067e-17
5.23607e-17
5.86032e-17
6.5252e-17
7.23255e-17
7.98423e-17
8.78215e-17
9.62826e-17
1.05245e-16
1.1473e-16
1.24758e-16
1.35349e-16
1.46526e-16
1.58311e-16
1.70725e-16
1.83793e-16
1.97538e-16
2.11985e-16
2.27157e-16
2.4308e-16
2.59781e-16
2.77286e-16
2.95621e-16
3.14816e-16
3.34898e-16
3.55897e-16
3.77843e-16
4.00766e-16
4.24698e-16
4.49672e-16
4.75719e-16
5.02875e-16
5.31174e-16
5.60651e-16
5.91343e-16
6.23287e-16
6.56522e-16
6.91087e-16
7.27023e-16
7.64371e-16
8.03174e-16
8.43475e-16
8.85319e-16
9.28752e-16
9.73821e-16
1.02058e-15
1.06906e-15
1.11934e-15
1.17145e-15
1.22546e-15
1.28141e-15
1.33937e-15
1.39939e-15
1.46153e-15
1.52586e-15
1.59243e-15
1.66132e-15
1.73259e-15
1.80631e-15
1.88254e-15
1.96138e-15
2.04287e-15
2.12712e-15
2.21418e-15
2.30415e-15
2.39711e-15
2.49314e-15
2.59233e-15
2.69478e-15
2.80057e-15
2.9098e-15
3.02258e-15
3.139e-15
3.25916e-15
3.38317e-15
3.51115e-15
3.64321e-15
3.77946e-15
3.92003e-15
4.06503e-15
4.21459e-15
4.36885e-15
4.52794e-15
4.69199e-15
4.86115e-15
5.03556e-15
5.21538e-15
5.40075e-15
5.59183e-15
5.7888e-15
5.99181e-15
6.20104e-15
6.41666e-15
6.63886e-15
6.86782e-15
7.10373e-15
7.3468e-15
7.59723e-15
7.85521e-15
8.12098e-15
8.39475e-15
8.67675e-15
8.9672e-15
9.26636e-15
9.57446e-15
9.89176e-15
1.02185e-14
1.0555e-14
1.09015e-14
1.12582e-14
1.16256e-14
1.20038e-14
1.23932e-14
1.27941e-14
1.32068e-14
1.36316e-14
1.40689e-14
1.45191e-14
1.49825e-14
1.54594e-14
1.59503e-14
1.64556e-14
1.69755e-14
1.75107e-14
1.80614e-14
1.86281e-14
1.92113e-14
1.98114e-14
2.04288e-14
2.10642e-14
2.17179e-14
2.23905e-14
2.30825e-14
2.37945e-14
2.45269e-14
2.52804e-14
2.60555e-14
2.68529e-14
2.76731e-14
2.85169e-14
2.93847e-14
3.02773e-14
3.11954e-14
3.21397e-14
3.31108e-14
3.41096e-14
3.51368e-14
3.61931e-14
3.72793e-14
3.83963e-14
3.9545e-14
4.07261e-14
4.19405e-14
4.31892e-14
4.44731e-14
4.5793e-14
4.71501e-14
4.85453e-14
4.99797e-14
5.14542e-14
5.297e-14
5.45281e-14
5.61298e-14
5.77762e-14
5.94684e-14
6.12077e-14
6.29954e-14
6.48327e-14
6.6721e-14
6.86616e-14
7.06559e-14
7.27053e-14
7.48113e-14
7.69754e-14
7.91991e-14
8.1484e-14
8.38316e-14
8.62437e-14
8.87219e-14
9.1268e-14
9.38837e-14
9.65708e-14
9.93312e-14
1.02167e-13
1.0508e-13
1.08072e-13
1.11145e-13
1.14301e-13
1.17543e-13
1.20873e-13
1.24292e-13
1.27804e-13
1.3141e-13
1.35113e-13
1.38916e-13
1.42821e-13
1.4683e-13
1.50947e-13
1.55173e-13
1.59512e-13
1.63967e-13
1.68541e-13
1.73235e-13
1.78055e-13
1.83002e-13
1.8808e-13
1.93292e-13
1.98641e-13
2.04131e-13
2.09766e-13
2.15549e-13
2.21483e-13
2.27572e-13
2.33821e-13
2.40232e-13
2.46811e-13
2.53561e-13
2.60486e-13
2.67591e-13
2.7488e-13
2.82357e-13
2.90027e-13
2.97894e-13
3.05964e-13
3.14242e-13
3.22731e-13
3.31438e-13
3.40367e-13
3.49524e-13
3.58914e-13
3.68543e-13
3.78416e-13
3.88539e-13
3.98918e-13
4.09559e-13
4.20468e-13
4.31652e-13
4.43116e-13
4.54868e-13
4.66914e-13
4.7926e-13
4.91914e-13
5.04883e-13
5.18174e-13
5.31794e-13
5.45751e-13
5.60053e-13
5.74707e-13
5.89721e-13
6.05104e-13
6.20864e-13
6.37008e-13
6.53547e-13
6.70489e-13
6.87842e-13
7.05615e-13
7.23819e-13
7.42463e-13
7.61555e-13
7.81107e-13
8.01128e-13
8.21628e-13
8.42619e-13
8.64109e-13
8.86111e-13
9.08635e-13
9.31693e-13
9.55295e-13
9.79454e-13
1.00418e-12
1.02949e-12
1.05539e-12
1.08189e-12
1.10902e-12
1.13677e-12
1.16517e-12
1.19422e-12
1.22395e-12
1.25436e-12
1.28547e-12
1.31729e-12
1.34984e-12
1.38313e-12
1.41718e-12
1.452e-12
1.48761e-12
1.52403e-12
1.56126e-12
1.59933e-12
1.63825e-12
1.67804e-12
1.71871e-12
1.76029e-12
1.80279e-12
1.84623e-12
1.89062e-12
1.93599e-12
1.98235e-12
2.02973e-12
2.07813e-12
2.12758e-12
2.1781e-12
2.22971e-12
2.28243e-12
2.33627e-12
2.39127e-12
2.44743e-12
2.50478e-12
2.56335e-12
2.62314e-12
2.68419e-12
2.7465e-12
2.81012e-12
2.87505e-12
2.94132e-12
3.00894e-12
3.07795e-12
3.14837e-12
3.2202e-12
3.29349e-12
3.36824e-12
3.44448e-12
3.52224e-12
3.60152e-12
3.68236e-12
3.76478e-12
3.84878e-12
3.93441e-12
4.02167e-12
4.11058e-12
4.20116e-12
4.29343e-12
4.38741e-12
4.48311e-12
4.58054e-12
4.67973e-12
4.78068e-12
4.88341e-12
4.98792e-12
5.09421e-12
5.20231e-12
5.3122e-12
5.4239e-12
5.53739e-12
5.65268e-12
5.76975e-12
5.88859e-12
6.00919e-12
6.13153e-12
6.25558e-12
6.38131e-12
6.50868e-12
6.63766e-12
6.76819e-12
6.90021e-12
7.03366e-12
7.16847e-12
7.30454e-12
7.44179e-12
7.5801e-12
7.71935e-12
7.85941e-12
8.00012e-12
8.14132e-12
8.28282e-12
8.4244e-12
8.56585e-12
8.70691e-12
8.8473e-12
8.9867e-12
9.12477e-12
9.26115e-12
9.39542e-12
9.52712e-12
9.65576e-12
9.78079e-12
9.90163e-12
1.00176e-11
1.0128e-11
1.02321e-11
1.0329e-11
1.04178e-11
1.04976e-11
1.05671e-11
1.06254e-11
1.06711e-11
1.0703e-11
1.07197e-11
1.02616e-18
3.29046e-18
5.78028e-18
8.51016e-18
1.14931e-17
1.47404e-17
1.82629e-17
2.2072e-17
2.61802e-17
3.0601e-17
3.53488e-17
4.04391e-17
4.58878e-17
5.17117e-17
5.79281e-17
6.45548e-17
7.161e-17
7.91124e-17
8.70811e-17
9.55356e-17
1.04496e-16
1.13983e-16
1.24017e-16
1.34619e-16
1.45812e-16
1.57618e-16
1.7006e-16
1.83161e-16
1.96945e-16
2.11437e-16
2.26662e-16
2.42646e-16
2.59416e-16
2.76997e-16
2.95419e-16
3.14709e-16
3.34896e-16
3.56011e-16
3.78084e-16
4.01145e-16
4.25227e-16
4.50363e-16
4.76587e-16
5.03932e-16
5.32435e-16
5.62131e-16
5.93058e-16
6.25254e-16
6.58757e-16
6.93608e-16
7.29848e-16
7.6752e-16
8.06665e-16
8.4733e-16
8.89559e-16
9.334e-16
9.78899e-16
1.02611e-15
1.07507e-15
1.12585e-15
1.1785e-15
1.23306e-15
1.2896e-15
1.34817e-15
1.40883e-15
1.47165e-15
1.53668e-15
1.604e-15
1.67366e-15
1.74574e-15
1.82031e-15
1.89743e-15
1.97718e-15
2.05964e-15
2.14488e-15
2.23299e-15
2.32405e-15
2.41814e-15
2.51535e-15
2.61577e-15
2.71949e-15
2.82661e-15
2.93722e-15
3.05142e-15
3.16933e-15
3.29103e-15
3.41665e-15
3.54629e-15
3.68006e-15
3.8181e-15
3.96051e-15
4.10743e-15
4.25898e-15
4.4153e-15
4.57651e-15
4.74277e-15
4.91421e-15
5.09098e-15
5.27324e-15
5.46114e-15
5.65484e-15
5.85451e-15
6.06031e-15
6.27243e-15
6.49103e-15
6.71632e-15
6.94846e-15
7.18767e-15
7.43414e-15
7.68807e-15
7.94969e-15
8.2192e-15
8.49683e-15
8.78282e-15
9.07739e-15
9.38079e-15
9.69327e-15
1.00151e-14
1.03465e-14
1.06878e-14
1.10393e-14
1.14011e-14
1.17738e-14
1.21574e-14
1.25524e-14
1.29591e-14
1.33778e-14
1.38087e-14
1.42524e-14
1.47091e-14
1.51792e-14
1.56631e-14
1.61611e-14
1.66737e-14
1.72013e-14
1.77443e-14
1.8303e-14
1.8878e-14
1.94698e-14
2.00787e-14
2.07052e-14
2.13499e-14
2.20132e-14
2.26958e-14
2.3398e-14
2.41204e-14
2.48636e-14
2.56283e-14
2.64149e-14
2.7224e-14
2.80564e-14
2.89126e-14
2.97933e-14
3.06992e-14
3.16309e-14
3.25892e-14
3.35748e-14
3.45884e-14
3.56309e-14
3.67029e-14
3.78054e-14
3.89391e-14
4.01048e-14
4.13036e-14
4.25361e-14
4.38035e-14
4.51066e-14
4.64463e-14
4.78237e-14
4.92398e-14
5.06957e-14
5.21923e-14
5.37308e-14
5.53124e-14
5.69381e-14
5.86093e-14
6.03269e-14
6.20924e-14
6.3907e-14
6.5772e-14
6.76888e-14
6.96586e-14
7.1683e-14
7.37634e-14
7.59012e-14
7.8098e-14
8.03553e-14
8.26747e-14
8.50579e-14
8.75065e-14
9.00223e-14
9.26069e-14
9.52622e-14
9.79901e-14
1.00792e-13
1.03671e-13
1.06628e-13
1.09666e-13
1.12786e-13
1.1599e-13
1.19281e-13
1.22662e-13
1.26133e-13
1.29698e-13
1.3336e-13
1.37119e-13
1.4098e-13
1.44944e-13
1.49015e-13
1.53194e-13
1.57486e-13
1.61891e-13
1.66414e-13
1.71058e-13
1.75825e-13
1.80718e-13
1.85741e-13
1.90896e-13
1.96188e-13
2.0162e-13
2.07195e-13
2.12916e-13
2.18788e-13
2.24813e-13
2.30996e-13
2.37341e-13
2.43852e-13
2.50532e-13
2.57386e-13
2.64418e-13
2.71632e-13
2.79034e-13
2.86626e-13
2.94415e-13
3.02405e-13
3.106e-13
3.19005e-13
3.27626e-13
3.36468e-13
3.45536e-13
3.54835e-13
3.64371e-13
3.74149e-13
3.84176e-13
3.94457e-13
4.04997e-13
4.15804e-13
4.26883e-13
4.38241e-13
4.49885e-13
4.6182e-13
4.74054e-13
4.86593e-13
4.99445e-13
5.12617e-13
5.26116e-13
5.39949e-13
5.54125e-13
5.68651e-13
5.83535e-13
5.98785e-13
6.14409e-13
6.30417e-13
6.46815e-13
6.63614e-13
6.80822e-13
6.98449e-13
7.16503e-13
7.34994e-13
7.53931e-13
7.73325e-13
7.93186e-13
8.13523e-13
8.34348e-13
8.5567e-13
8.77501e-13
8.99852e-13
9.22733e-13
9.46156e-13
9.70134e-13
9.94676e-13
1.0198e-12
1.04551e-12
1.07182e-12
1.09875e-12
1.1263e-12
1.1545e-12
1.18335e-12
1.21287e-12
1.24307e-12
1.27397e-12
1.30557e-12
1.3379e-12
1.37097e-12
1.4048e-12
1.43939e-12
1.47478e-12
1.51096e-12
1.54795e-12
1.58579e-12
1.62447e-12
1.66401e-12
1.70445e-12
1.74578e-12
1.78803e-12
1.83121e-12
1.87535e-12
1.92047e-12
1.96657e-12
2.01368e-12
2.06182e-12
2.11101e-12
2.16126e-12
2.2126e-12
2.26505e-12
2.31863e-12
2.37335e-12
2.42924e-12
2.48632e-12
2.54461e-12
2.60413e-12
2.6649e-12
2.72694e-12
2.79028e-12
2.85494e-12
2.92094e-12
2.98829e-12
3.05703e-12
3.12718e-12
3.19875e-12
3.27177e-12
3.34627e-12
3.42226e-12
3.49976e-12
3.5788e-12
3.6594e-12
3.74159e-12
3.82537e-12
3.91078e-12
3.99783e-12
4.08655e-12
4.17695e-12
4.26905e-12
4.36287e-12
4.45843e-12
4.55574e-12
4.65482e-12
4.75569e-12
4.85835e-12
4.96282e-12
5.06911e-12
5.17723e-12
5.28717e-12
5.39895e-12
5.51257e-12
5.62802e-12
5.74531e-12
5.86441e-12
5.98533e-12
6.10804e-12
6.23253e-12
6.35877e-12
6.48674e-12
6.61638e-12
6.74767e-12
6.88055e-12
7.01497e-12
7.15086e-12
7.28815e-12
7.42674e-12
7.56656e-12
7.70747e-12
7.84938e-12
7.99213e-12
8.13558e-12
8.27956e-12
8.42388e-12
8.56833e-12
8.71269e-12
8.85669e-12
9.00006e-12
9.14249e-12
9.28364e-12
9.42311e-12
9.56051e-12
9.69538e-12
9.82722e-12
9.95548e-12
1.00796e-11
1.01988e-11
1.03125e-11
1.04198e-11
1.05199e-11
1.06119e-11
1.06946e-11
1.07671e-11
1.0828e-11
1.0876e-11
1.09097e-11
1.09274e-11
1.00927e-18
3.23519e-18
5.6797e-18
8.3571e-18
1.12822e-17
1.44687e-17
1.79298e-17
2.16787e-17
2.57291e-17
3.00953e-17
3.47921e-17
3.98351e-17
4.52403e-17
5.10243e-17
5.72044e-17
6.37981e-17
7.08235e-17
7.82993e-17
8.62445e-17
9.46787e-17
1.03622e-16
1.13094e-16
1.23117e-16
1.33713e-16
1.44902e-16
1.56708e-16
1.69154e-16
1.82263e-16
1.96061e-16
2.10571e-16
2.25819e-16
2.41832e-16
2.58636e-16
2.76259e-16
2.94729e-16
3.14073e-16
3.34323e-16
3.55508e-16
3.77658e-16
4.00807e-16
4.24985e-16
4.50227e-16
4.76566e-16
5.04038e-16
5.32678e-16
5.62523e-16
5.93611e-16
6.2598e-16
6.5967e-16
6.94721e-16
7.31176e-16
7.69076e-16
8.08466e-16
8.49392e-16
8.91898e-16
9.36032e-16
9.81843e-16
1.02938e-15
1.0787e-15
1.12985e-15
1.18288e-15
1.23785e-15
1.29482e-15
1.35385e-15
1.41499e-15
1.47831e-15
1.54388e-15
1.61175e-15
1.68199e-15
1.75468e-15
1.82988e-15
1.90766e-15
1.98811e-15
2.0713e-15
2.1573e-15
2.2462e-15
2.33809e-15
2.43304e-15
2.53115e-15
2.6325e-15
2.73719e-15
2.84532e-15
2.95699e-15
3.07228e-15
3.19132e-15
3.31421e-15
3.44105e-15
3.57196e-15
3.70707e-15
3.84647e-15
3.99031e-15
4.13871e-15
4.29179e-15
4.44969e-15
4.61255e-15
4.7805e-15
4.95371e-15
5.13231e-15
5.31645e-15
5.50631e-15
5.70203e-15
5.90379e-15
6.11176e-15
6.32611e-15
6.54703e-15
6.7747e-15
7.00932e-15
7.25109e-15
7.50019e-15
7.75686e-15
8.02129e-15
8.29371e-15
8.57435e-15
8.86343e-15
9.16121e-15
9.46791e-15
9.78381e-15
1.01092e-14
1.04442e-14
1.07893e-14
1.11446e-14
1.15104e-14
1.18872e-14
1.22751e-14
1.26745e-14
1.30856e-14
1.3509e-14
1.39448e-14
1.43934e-14
1.48552e-14
1.53305e-14
1.58198e-14
1.63235e-14
1.68418e-14
1.73753e-14
1.79244e-14
1.84894e-14
1.90709e-14
1.96693e-14
2.02851e-14
2.09188e-14
2.15708e-14
2.22416e-14
2.29319e-14
2.36421e-14
2.43727e-14
2.51244e-14
2.58978e-14
2.66933e-14
2.75118e-14
2.83536e-14
2.92196e-14
3.01104e-14
3.10267e-14
3.19691e-14
3.29384e-14
3.39353e-14
3.49606e-14
3.6015e-14
3.70994e-14
3.82145e-14
3.93613e-14
4.05405e-14
4.17531e-14
4.29999e-14
4.42819e-14
4.56e-14
4.69553e-14
4.83486e-14
4.97812e-14
5.12539e-14
5.27679e-14
5.43243e-14
5.59242e-14
5.75689e-14
5.92594e-14
6.09971e-14
6.27832e-14
6.46189e-14
6.65057e-14
6.84448e-14
7.04377e-14
7.24857e-14
7.45904e-14
7.67532e-14
7.89757e-14
8.12595e-14
8.36061e-14
8.60172e-14
8.84946e-14
9.10398e-14
9.36549e-14
9.63414e-14
9.91014e-14
1.01937e-13
1.04849e-13
1.07841e-13
1.10914e-13
1.14071e-13
1.17313e-13
1.20644e-13
1.24064e-13
1.27576e-13
1.31184e-13
1.34888e-13
1.38693e-13
1.42599e-13
1.46611e-13
1.50729e-13
1.54959e-13
1.59301e-13
1.63759e-13
1.68336e-13
1.73034e-13
1.77858e-13
1.82809e-13
1.87892e-13
1.93109e-13
1.98465e-13
2.03961e-13
2.09602e-13
2.15392e-13
2.21334e-13
2.27431e-13
2.33689e-13
2.4011e-13
2.46698e-13
2.53459e-13
2.60395e-13
2.67512e-13
2.74813e-13
2.82303e-13
2.89988e-13
2.9787e-13
3.05956e-13
3.1425e-13
3.22757e-13
3.31482e-13
3.4043e-13
3.49608e-13
3.5902e-13
3.68671e-13
3.78568e-13
3.88716e-13
3.99122e-13
4.0979e-13
4.20729e-13
4.31943e-13
4.43439e-13
4.55224e-13
4.67304e-13
4.79687e-13
4.9238e-13
5.05389e-13
5.18721e-13
5.32385e-13
5.46388e-13
5.60737e-13
5.75441e-13
5.90507e-13
6.05944e-13
6.21761e-13
6.37965e-13
6.54565e-13
6.7157e-13
6.8899e-13
7.06834e-13
7.2511e-13
7.43829e-13
7.63001e-13
7.82635e-13
8.02741e-13
8.2333e-13
8.44412e-13
8.65999e-13
8.88101e-13
9.10728e-13
9.33894e-13
9.57608e-13
9.81883e-13
1.00673e-12
1.03216e-12
1.0582e-12
1.08484e-12
1.1121e-12
1.14e-12
1.16855e-12
1.19776e-12
1.22765e-12
1.25823e-12
1.28951e-12
1.32152e-12
1.35425e-12
1.38774e-12
1.42199e-12
1.45702e-12
1.49285e-12
1.52948e-12
1.56695e-12
1.60526e-12
1.64443e-12
1.68448e-12
1.72542e-12
1.76728e-12
1.81006e-12
1.8538e-12
1.8985e-12
1.94418e-12
1.99087e-12
2.03859e-12
2.08734e-12
2.13716e-12
2.18805e-12
2.24005e-12
2.29317e-12
2.34743e-12
2.40286e-12
2.45947e-12
2.51728e-12
2.57632e-12
2.6366e-12
2.69816e-12
2.761e-12
2.82516e-12
2.89066e-12
2.95751e-12
3.02574e-12
3.09537e-12
3.16643e-12
3.23893e-12
3.31291e-12
3.38837e-12
3.46535e-12
3.54387e-12
3.62395e-12
3.70561e-12
3.78888e-12
3.87376e-12
3.9603e-12
4.0485e-12
4.13839e-12
4.22999e-12
4.32332e-12
4.41839e-12
4.51522e-12
4.61383e-12
4.71424e-12
4.81647e-12
4.92051e-12
5.02639e-12
5.13412e-12
5.24371e-12
5.35515e-12
5.46846e-12
5.58364e-12
5.70068e-12
5.81959e-12
5.94035e-12
6.06295e-12
6.18739e-12
6.31363e-12
6.44166e-12
6.57144e-12
6.70294e-12
6.83612e-12
6.97093e-12
7.10732e-12
7.24521e-12
7.38453e-12
7.52521e-12
7.66713e-12
7.81021e-12
7.95431e-12
8.09929e-12
8.24502e-12
8.39131e-12
8.53798e-12
8.68483e-12
8.83163e-12
8.97812e-12
9.12401e-12
9.269e-12
9.41275e-12
9.55488e-12
9.69497e-12
9.83256e-12
9.96716e-12
1.00982e-11
1.02251e-11
1.03472e-11
1.04638e-11
1.0574e-11
1.06769e-11
1.07717e-11
1.08572e-11
1.09323e-11
1.09956e-11
1.10458e-11
1.10811e-11
1.10998e-11
9.95106e-19
3.18885e-18
5.5955e-18
8.22854e-18
1.11034e-17
1.42356e-17
1.76402e-17
2.13322e-17
2.53267e-17
2.96391e-17
3.42847e-17
3.92794e-17
4.46394e-17
5.03814e-17
5.65223e-17
6.30797e-17
7.00716e-17
7.75163e-17
8.54328e-17
9.38406e-17
1.0276e-16
1.12211e-16
1.22214e-16
1.32793e-16
1.43968e-16
1.55762e-16
1.68199e-16
1.81303e-16
1.95098e-16
2.09609e-16
2.24863e-16
2.40884e-16
2.57702e-16
2.75342e-16
2.93833e-16
3.13206e-16
3.33488e-16
3.54711e-16
3.76907e-16
4.00106e-16
4.24342e-16
4.49649e-16
4.7606e-16
5.03612e-16
5.3234e-16
5.62282e-16
5.93475e-16
6.25959e-16
6.59774e-16
6.9496e-16
7.3156e-16
7.69617e-16
8.09176e-16
8.50281e-16
8.92979e-16
9.37319e-16
9.83349e-16
1.03112e-15
1.08068e-15
1.13209e-15
1.1854e-15
1.24067e-15
1.29795e-15
1.3573e-15
1.41879e-15
1.48248e-15
1.54842e-15