# vtk DataFile Version 2.0
sampleSurface
ASCII
DATASET POLYDATA
POINTS 8421 float
0.001 0.001 0.001 0 0.001 0.001 0 0 0.001 0.001 0
0.001 0.002 0.001 0.001 0.002 0 0.001 0.003 0.001 0.001
0.003 0 0.001 0.004 0.001 0.001 0.004 0 0.001 0.005
0.001 0.001 0.005 0 0.001 0.006 0.001 0.001 0.006 0
0.001 0.007 0.001 0.001 0.007 0 0.001 0.008 0.001 0.001
0.008 0 0.001 0.009 0.001 0.001 0.009 0 0.001 0.01
0.001 0.001 0.01 0 0.001 0.011 0.001 0.001 0.011 0
0.001 0.012 0.001 0.001 0.012 0 0.001 0.013 0.001 0.001
0.013 0 0.001 0.014 0.001 0.001 0.014 0 0.001 0.015
0.001 0.001 0.015 0 0.001 0.016 0.001 0.001 0.016 0
0.001 0.017 0.001 0.001 0.017 0 0.001 0.018 0.001 0.001
0.018 0 0.001 0.019 0.001 0.001 0.019 0 0.001 0.02
0.001 0.001 0.02 0 0.001 0.021 0.001 0.001 0.021 0
0.001 0.022 0.001 0.001 0.022 0 0.001 0.023 0.001 0.001
0.023 0 0.001 0.024 0.001 0.001 0.024 0 0.001 0.025
0.001 0.001 0.025 0 0.001 0.026 0.001 0.001 0.026 0
0.001 0.027 0.001 0.001 0.027 0 0.001 0.028 0.001 0.001
0.028 0 0.001 0.029 0.001 0.001 0.029 0 0.001 0.03
0.001 0.001 0.03 0 0.001 0.031 0.001 0.001 0.031 0
0.001 0.032 0.001 0.001 0.032 0 0.001 0.033 0.001 0.001
0.033 0 0.001 0.034 0.001 0.001 0.034 0 0.001 0.035
0.001 0.001 0.035 0 0.001 0.036 0.001 0.001 0.036 0
0.001 0.037 0.001 0.001 0.037 0 0.001 0.038 0.001 0.001
0.038 0 0.001 0.039 0.001 0.001 0.039 0 0.001 0.04
0.001 0.001 0.04 0 0.001 0.041 0.001 0.001 0.041 0
0.001 0.042 0.001 0.001 0.042 0 0.001 0.043 0.001 0.001
0.043 0 0.001 0.044 0.001 0.001 0.044 0 0.001 0.045
0.001 0.001 0.045 0 0.001 0.046 0.001 0.001 0.046 0
0.001 0.047 0.001 0.001 0.047 0 0.001 0.048 0.001 0.001
0.048 0 0.001 0.049 0.001 0.001 0.049 0 0.001 0.05
0.001 0.001 0.05 0 0.001 0.051 0.001 0.001 0.051 0
0.001 0.052 0.001 0.001 0.052 0 0.001 0.053 0.001 0.001
0.053 0 0.001 0.054 0.001 0.001 0.054 0 0.001 0.055
0.001 0.001 0.055 0 0.001 0.056 0.001 0.001 0.056 0
0.001 0.057 0.001 0.001 0.057 0 0.001 0.058 0.001 0.001
0.058 0 0.001 0.059 0.001 0.001 0.059 0 0.001 0.06
0.001 0.001 0.06 0 0.001 0.061 0.001 0.001 0.061 0
0.001 0.062 0.001 0.001 0.062 0 0.001 0.063 0.001 0.001
0.063 0 0.001 0.064 0.001 0.001 0.064 0 0.001 0.065
0.001 0.001 0.065 0 0.001 0.066 0.001 0.001 0.066 0
0.001 0.067 0.001 0.001 0.067 0 0.001 0.068 0.001 0.001
0.068 0 0.001 0.069 0.001 0.001 0.069 0 0.001 0.07
0.001 0.001 0.07 0 0.001 0.071 0.001 0.001 0.071 0
0.001 0.072 0.001 0.001 0.072 0 0.001 0.073 0.001 0.001
0.073 0 0.001 0.074 0.001 0.001 0.074 0 0.001 0.075
0.001 0.001 0.075 0 0.001 0.076 0.001 0.001 0.076 0
0.001 0.077 0.001 0.001 0.077 0 0.001 0.078 0.001 0.001
0.078 0 0.001 0.079 0.001 0.001 0.079 0 0.001 0.08
0.001 0.001 0.08 0 0.001 0.081 0.001 0.001 0.081 0
0.001 0.082 0.001 0.001 0.082 0 0.001 0.083 0.001 0.001
0.083 0 0.001 0.084 0.001 0.001 0.084 0 0.001 0.085
0.001 0.001 0.085 0 0.001 0.086 0.001 0.001 0.086 0
0.001 0.087 0.001 0.001 0.087 0 0.001 0.088 0.001 0.001
0.088 0 0.001 0.089 0.001 0.001 0.089 0 0.001 0.09
0.001 0.001 0.09 0 0.001 0.091 0.001 0.001 0.091 0
0.001 0.092 0.001 0.001 0.092 0 0.001 0.093 0.001 0.001
0.093 0 0.001 0.094 0.001 0.001 0.094 0 0.001 0.095
0.001 0.001 0.095 0 0.001 0.096 0.001 0.001 0.096 0
0.001 0.097 0.001 0.001 0.097 0 0.001 0.098 0.001 0.001
0.098 0 0.001 0.099 0.001 0.001 0.099 0 0.001 0.1
0.001 0.001 0.1 0 0.001 0.101 0.001 0.001 0.101 0
0.001 0.102 0.001 0.001 0.102 0 0.001 0.103 0.001 0.001
0.103 0 0.001 0.104 0.001 0.001 0.104 0 0.001 0.105
0.001 0.001 0.105 0 0.001 0.106 0.001 0.001 0.106 0
0.001 0.107 0.001 0.001 0.107 0 0.001 0.108 0.001 0.001
0.108 0 0.001 0.109 0.001 0.001 0.109 0 0.001 0.11
0.001 0.001 0.11 0 0.001 0.111 0.001 0.001 0.111 0
0.001 0.112 0.001 0.001 0.112 0 0.001 0.113 0.001 0.001
0.113 0 0.001 0.114 0.001 0.001 0.114 0 0.001 0.115
0.001 0.001 0.115 0 0.001 0.116 0.001 0.001 0.116 0
0.001 0.117 0.001 0.001 0.117 0 0.001 0.118 0.001 0.001
0.118 0 0.001 0.119 0.001 0.001 0.119 0 0.001 0.12
0.001 0.001 0.12 0 0.001 0.121 0.001 0.001 0.121 0
0.001 0.122 0.001 0.001 0.122 0 0.001 0.123 0.001 0.001
0.123 0 0.001 0.124 0.001 0.001 0.124 0 0.001 0.125
0.001 0.001 0.125 0 0.001 0.126 0.001 0.001 0.126 0
0.001 0.127 0.001 0.001 0.127 0 0.001 0.128 0.001 0.001
0.128 0 0.001 0.129 0.001 0.001 0.129 0 0.001 0.13
0.001 0.001 0.13 0 0.001 0.131 0.001 0.001 0.131 0
0.001 0.132 0.001 0.001 0.132 0 0.001 0.133 0.001 0.001
0.133 0 0.001 0.134 0.001 0.001 0.134 0 0.001 0.135
0.001 0.001 0.135 0 0.001 0.136 0.001 0.001 0.136 0
0.001 0.137 0.001 0.001 0.137 0 0.001 0.138 0.001 0.001
0.138 0 0.001 0.139 0.001 0.001 0.139 0 0.001 0.14
0.001 0.001 0.14 0 0.001 0.141 0.001 0.001 0.141 0
0.001 0.142 0.001 0.001 0.142 0 0.001 0.143 0.001 0.001
0.143 0 0.001 0.144 0.001 0.001 0.144 0 0.001 0.145
0.001 0.001 0.145 0 0.001 0.146 0.001 0.001 0.146 0
0.001 0.147 0.001 0.001 0.147 0 0.001 0.148 0.001 0.001
0.148 0 0.001 0.149 0.001 0.001 0.149 0 0.001 0.15
0.001 0.001 0.15 0 0.001 0.151 0.001 0.001 0.151 0
0.001 0.152 0.001 0.001 0.152 0 0.001 0.153 0.001 0.001
0.153 0 0.001 0.154 0.001 0.001 0.154 0 0.001 0.155
0.001 0.001 0.155 0 0.001 0.156 0.001 0.001 0.156 0
0.001 0.157 0.001 0.001 0.157 0 0.001 0.158 0.001 0.001
0.158 0 0.001 0.159 0.001 0.001 0.159 0 0.001 0.16
0.001 0.001 0.16 0 0.001 0.161 0.001 0.001 0.161 0
0.001 0.162 0.001 0.001 0.162 0 0.001 0.163 0.001 0.001
0.163 0 0.001 0.164 0.001 0.001 0.164 0 0.001 0.165
0.001 0.001 0.165 0 0.001 0.166 0.001 0.001 0.166 0
0.001 0.167 0.001 0.001 0.167 0 0.001 0.168 0.001 0.001
0.168 0 0.001 0.169 0.001 0.001 0.169 0 0.001 0.17
0.001 0.001 0.17 0 0.001 0.171 0.001 0.001 0.171 0
0.001 0.172 0.001 0.001 0.172 0 0.001 0.173 0.001 0.001
0.173 0 0.001 0.174 0.001 0.001 0.174 0 0.001 0.175
0.001 0.001 0.175 0 0.001 0.176 0.001 0.001 0.176 0
0.001 0.177 0.001 0.001 0.177 0 0.001 0.178 0.001 0.001
0.178 0 0.001 0.179 0.001 0.001 0.179 0 0.001 0.18
0.001 0.001 0.18 0 0.001 0.181 0.001 0.001 0.181 0
0.001 0.182 0.001 0.001 0.182 0 0.001 0.183 0.001 0.001
0.183 0 0.001 0.184 0.001 0.001 0.184 0 0.001 0.185
0.001 0.001 0.185 0 0.001 0.186 0.001 0.001 0.186 0
0.001 0.187 0.001 0.001 0.187 0 0.001 0.188 0.001 0.001
0.188 0 0.001 0.189 0.001 0.001 0.189 0 0.001 0.19
0.001 0.001 0.19 0 0.001 0.191 0.001 0.001 0.191 0
0.001 0.192 0.001 0.001 0.192 0 0.001 0.193 0.001 0.001
0.193 0 0.001 0.194 0.001 0.001 0.194 0 0.001 0.195
0.001 0.001 0.195 0 0.001 0.196 0.001 0.001 0.196 0
0.001 0.197 0.001 0.001 0.197 0 0.001 0.198 0.001 0.001
0.198 0 0.001 0.199 0.001 0.001 0.199 0 0.001 0.2
0.001 0.001 0.2 0 0.001 0.201 0.001 0.001 0.201 0
0.001 0.202 0.001 0.001 0.202 0 0.001 0.203 0.001 0.001
0.203 0 0.001 0.204 0.001 0.001 0.204 0 0.001 0.205
0.001 0.001 0.205 0 0.001 0.206 0.001 0.001 0.206 0
0.001 0.207 0.001 0.001 0.207 0 0.001 0.208 0.001 0.001
0.208 0 0.001 0.209 0.001 0.001 0.209 0 0.001 0.21
0.001 0.001 0.21 0 0.001 0.211 0.001 0.001 0.211 0
0.001 0.212 0.001 0.001 0.212 0 0.001 0.213 0.001 0.001
0.213 0 0.001 0.214 0.001 0.001 0.214 0 0.001 0.215
0.001 0.001 0.215 0 0.001 0.216 0.001 0.001 0.216 0
0.001 0.217 0.001 0.001 0.217 0 0.001 0.218 0.001 0.001
0.218 0 0.001 0.219 0.001 0.001 0.219 0 0.001 0.22
0.001 0.001 0.22 0 0.001 0.221 0.001 0.001 0.221 0
0.001 0.222 0.001 0.001 0.222 0 0.001 0.223 0.001 0.001
0.223 0 0.001 0.224 0.001 0.001 0.224 0 0.001 0.225
0.001 0.001 0.225 0 0.001 0.226 0.001 0.001 0.226 0
0.001 0.227 0.001 0.001 0.227 0 0.001 0.228 0.001 0.001
0.228 0 0.001 0.229 0.001 0.001 0.229 0 0.001 0.23
0.001 0.001 0.23 0 0.001 0.231 0.001 0.001 0.231 0
0.001 0.232 0.001 0.001 0.232 0 0.001 0.233 0.001 0.001
0.233 0 0.001 0.234 0.001 0.001 0.234 0 0.001 0.235
0.001 0.001 0.235 0 0.001 0.236 0.001 0.001 0.236 0
0.001 0.237 0.001 0.001 0.237 0 0.001 0.238 0.001 0.001
0.238 0 0.001 0.239 0.001 0.001 0.239 0 0.001 0.24
0.001 0.001 0.24 0 0.001 0.241 0.001 0.001 0.241 0
0.001 0.242 0.001 0.001 0.242 0 0.001 0.243 0.001 0.001
0.243 0 0.001 0.244 0.001 0.001 0.244 0 0.001 0.245
0.001 0.001 0.245 0 0.001 0.246 0.001 0.001 0.246 0
0.001 0.247 0.001 0.001 0.247 0 0.001 0.248 0.001 0.001
0.248 0 0.001 0.249 0.001 0.001 0.249 0 0.001 0.25
0.001 0.001 0.25 0 0.001 0.251 0.001 0.001 0.251 0
0.001 0.252 0.001 0.001 0.252 0 0.001 0.253 0.001 0.001
0.253 0 0.001 0.254 0.001 0.001 0.254 0 0.001 0.255
0.001 0.001 0.255 0 0.001 0.256 0.001 0.001 0.256 0
0.001 0.257 0.001 0.001 0.257 0 0.001 0.258 0.001 0.001
0.258 0 0.001 0.259 0.001 0.001 0.259 0 0.001 0.26
0.001 0.001 0.26 0 0.001 0.261 0.001 0.001 0.261 0
0.001 0.262 0.001 0.001 0.262 0 0.001 0.263 0.001 0.001
0.263 0 0.001 0.264 0.001 0.001 0.264 0 0.001 0.265
0.001 0.001 0.265 0 0.001 0.266 0.001 0.001 0.266 0
0.001 0.267 0.001 0.001 0.267 0 0.001 0.268 0.001 0.001
0.268 0 0.001 0.269 0.001 0.001 0.269 0 0.001 0.27
0.001 0.001 0.27 0 0.001 0.271 0.001 0.001 0.271 0
0.001 0.272 0.001 0.001 0.272 0 0.001 0.273 0.001 0.001
0.273 0 0.001 0.274 0.001 0.001 0.274 0 0.001 0.275
0.001 0.001 0.275 0 0.001 0.276 0.001 0.001 0.276 0
0.001 0.277 0.001 0.001 0.277 0 0.001 0.278 0.001 0.001
0.278 0 0.001 0.279 0.001 0.001 0.279 0 0.001 0.28
0.001 0.001 0.28 0 0.001 0.281 0.001 0.001 0.281 0
0.001 0.282 0.001 0.001 0.282 0 0.001 0.283 0.001 0.001
0.283 0 0.001 0.284 0.001 0.001 0.284 0 0.001 0.285
0.001 0.001 0.285 0 0.001 0.286 0.001 0.001 0.286 0
0.001 0.287 0.001 0.001 0.287 0 0.001 0.288 0.001 0.001
0.288 0 0.001 0.289 0.001 0.001 0.289 0 0.001 0.29
0.001 0.001 0.29 0 0.001 0.291 0.001 0.001 0.291 0
0.001 0.292 0.001 0.001 0.292 0 0.001 0.293 0.001 0.001
0.293 0 0.001 0.294 0.001 0.001 0.294 0 0.001 0.295
0.001 0.001 0.295 0 0.001 0.296 0.001 0.001 0.296 0
0.001 0.297 0.001 0.001 0.297 0 0.001 0.298 0.001 0.001
0.298 0 0.001 0.299 0.001 0.001 0.299 0 0.001 0.3
0.001 0.001 0.3 0 0.001 0.301 0.001 0.001 0.301 0
0.001 0.302 0.001 0.001 0.302 0 0.001 0.303 0.001 0.001
0.303 0 0.001 0.304 0.001 0.001 0.304 0 0.001 0.305
0.001 0.001 0.305 0 0.001 0.306 0.001 0.001 0.306 0
0.001 0.307 0.001 0.001 0.307 0 0.001 0.308 0.001 0.001
0.308 0 0.001 0.309 0.001 0.001 0.309 0 0.001 0.31
0.001 0.001 0.31 0 0.001 0.311 0.001 0.001 0.311 0
[...]
POINT_DATA 8421
FIELD attributes 2
N1 1 8421 float
1.79519e-09 0 4.30135e-10 1.8001e-09 3.76997e-09 3.77379e-09 5.93353e-09 5.93112e-09 8.28311e-09 8.2683e-09 1.08224e-08
1.07901e-08 1.35586e-08 1.35046e-08 1.64997e-08 1.642e-08 1.96546e-08 1.95451e-08 2.3033e-08 2.28896e-08 2.66457e-08
2.64641e-08 3.05039e-08 3.02796e-08 3.46193e-08 3.43475e-08 3.90042e-08 3.86798e-08 4.3671e-08 4.32884e-08 4.86324e-08
4.81858e-08 5.39013e-08 5.33845e-08 5.94909e-08 5.88973e-08 6.54143e-08 6.4737e-08 7.16851e-08 7.09166e-08 7.83168e-08
7.74494e-08 8.53232e-08 8.43486e-08 9.27183e-08 9.16277e-08 1.00516e-07 9.93004e-08 1.08731e-07 1.07381e-07 1.17378e-07
1.15882e-07 1.2647e-07 1.24819e-07 1.36025e-07 1.34206e-07 1.46055e-07 1.44058e-07 1.56578e-07 1.5439e-07 1.67608e-07
1.65215e-07 1.79161e-07 1.76551e-07 1.91254e-07 1.88413e-07 2.03903e-07 2.00815e-07 2.17124e-07 2.13775e-07 2.30935e-07
2.27308e-07 2.45353e-07 2.41432e-07 2.60395e-07 2.56162e-07 2.76079e-07 2.71517e-07 2.92422e-07 2.87512e-07 3.09445e-07
3.04167e-07 3.27164e-07 3.21498e-07 3.45598e-07 3.39525e-07 3.64768e-07 3.58264e-07 3.84692e-07 3.77736e-07 4.0539e-07
3.97959e-07 4.26883e-07 4.18953e-07 4.4919e-07 4.40736e-07 4.72333e-07 4.6333e-07 4.96332e-07 4.86753e-07 5.21209e-07
5.11028e-07 5.46985e-07 5.36173e-07 5.73682e-07 5.62212e-07 6.01324e-07 5.89165e-07 6.29931e-07 6.17053e-07 6.59528e-07
6.459e-07 6.90138e-07 6.75727e-07 7.21784e-07 7.06558e-07 7.5449e-07 7.38414e-07 7.88282e-07 7.71321e-07 8.23182e-07
8.05302e-07 8.59217e-07 8.4038e-07 8.96413e-07 8.7658e-07 9.34794e-07 9.13928e-07 9.74386e-07 9.52448e-07 1.01522e-06
9.92165e-07 1.05731e-06 1.03311e-06 1.1007e-06 1.0753e-06 1.14541e-06 1.11877e-06 1.19147e-06 1.16354e-06 1.2389e-06
1.20964e-06 1.28774e-06 1.2571e-06 1.33801e-06 1.30595e-06 1.38975e-06 1.35621e-06 1.44298e-06 1.40791e-06 1.49773e-06
1.46109e-06 1.55404e-06 1.51577e-06 1.61193e-06 1.57198e-06 1.67144e-06 1.62975e-06 1.73259e-06 1.68911e-06 1.79543e-06
1.7501e-06 1.85997e-06 1.81274e-06 1.92626e-06 1.87707e-06 1.99432e-06 1.94311e-06 2.0642e-06 2.0109e-06 2.13592e-06
2.08047e-06 2.20951e-06 2.15186e-06 2.28502e-06 2.22509e-06 2.36247e-06 2.3002e-06 2.4419e-06 2.37723e-06 2.52335e-06
2.4562e-06 2.60685e-06 2.53716e-06 2.69243e-06 2.62012e-06 2.78013e-06 2.70514e-06 2.86999e-06 2.79224e-06 2.96205e-06
2.88146e-06 3.05633e-06 2.97284e-06 3.15288e-06 3.0664e-06 3.25173e-06 3.16218e-06 3.35292e-06 3.26023e-06 3.45648e-06
3.36057e-06 3.56246e-06 3.46324e-06 3.67088e-06 3.56828e-06 3.7818e-06 3.67573e-06 3.89524e-06 3.78561e-06 4.01124e-06
3.89796e-06 4.12983e-06 4.01283e-06 4.25107e-06 4.13024e-06 4.37497e-06 4.25024e-06 4.50159e-06 4.37285e-06 4.63095e-06
4.49812e-06 4.7631e-06 4.62607e-06 4.89807e-06 4.75676e-06 5.0359e-06 4.8902e-06 5.17662e-06 5.02645e-06 5.32028e-06
5.16552e-06 5.4669e-06 5.30746e-06 5.61652e-06 5.4523e-06 5.76918e-06 5.60008e-06 5.92492e-06 5.75082e-06 6.08376e-06
5.90457e-06 6.24575e-06 6.06136e-06 6.41091e-06 6.22122e-06 6.57929e-06 6.38418e-06 6.7509e-06 6.55027e-06 6.9258e-06
6.71953e-06 7.10401e-06 6.89199e-06 7.28555e-06 7.06768e-06 7.47047e-06 7.24662e-06 7.65879e-06 7.42885e-06 7.85055e-06
7.6144e-06 8.04576e-06 7.80329e-06 8.24446e-06 7.99555e-06 8.44668e-06 8.19121e-06 8.65244e-06 8.39029e-06 8.86177e-06
8.59282e-06 9.07469e-06 8.79882e-06 9.29123e-06 9.00831e-06 9.51141e-06 9.22133e-06 9.73525e-06 9.43788e-06 9.96277e-06
9.65799e-06 1.0194e-05 9.88167e-06 1.04289e-05 1.01089e-05 1.06676e-05 1.03398e-05 1.09101e-05 1.05744e-05 1.11563e-05
1.08125e-05 1.14063e-05 1.10543e-05 1.166e-05 1.12998e-05 1.19176e-05 1.1549e-05 1.2179e-05 1.18018e-05 1.24442e-05
1.20583e-05 1.27133e-05 1.23185e-05 1.29862e-05 1.25825e-05 1.32629e-05 1.28501e-05 1.35434e-05 1.31215e-05 1.38278e-05
1.33965e-05 1.4116e-05 1.36753e-05 1.44081e-05 1.39577e-05 1.4704e-05 1.42439e-05 1.50037e-05 1.45337e-05 1.53072e-05
1.48272e-05 1.56145e-05 1.51244e-05 1.59256e-05 1.54252e-05 1.62404e-05 1.57297e-05 1.6559e-05 1.60378e-05 1.68814e-05
1.63496e-05 1.72074e-05 1.66649e-05 1.75372e-05 1.69837e-05 1.78706e-05 1.73061e-05 1.82076e-05 1.76321e-05 1.85483e-05
1.79615e-05 1.88925e-05 1.82943e-05 1.92403e-05 1.86306e-05 1.95916e-05 1.89702e-05 1.99463e-05 1.93133e-05 2.03045e-05
1.96596e-05 2.0666e-05 2.00092e-05 2.10309e-05 2.0362e-05 2.13991e-05 2.07179e-05 2.17705e-05 2.10771e-05 2.21451e-05
2.14392e-05 2.25228e-05 2.18044e-05 2.29036e-05 2.21726e-05 2.32875e-05 2.25437e-05 2.36742e-05 2.29176e-05 2.40639e-05
2.32943e-05 2.44563e-05 2.36738e-05 2.48516e-05 2.40559e-05 2.52494e-05 2.44405e-05 2.56499e-05 2.48277e-05 2.6053e-05
2.52173e-05 2.64584e-05 2.56093e-05 2.68663e-05 2.60036e-05 2.72764e-05 2.64e-05 2.76887e-05 2.67986e-05 2.81031e-05
2.71992e-05 2.85195e-05 2.76018e-05 2.89378e-05 2.80062e-05 2.9358e-05 2.84123e-05 2.97799e-05 2.88201e-05 3.02034e-05
2.92295e-05 3.06284e-05 2.96404e-05 3.10549e-05 3.00526e-05 3.14826e-05 3.04661e-05 3.19116e-05 3.08807e-05 3.23416e-05
3.12964e-05 3.27726e-05 3.1713e-05 3.32045e-05 3.21304e-05 3.36371e-05 3.25486e-05 3.40704e-05 3.29673e-05 3.45041e-05
3.33865e-05 3.49383e-05 3.38061e-05 3.53726e-05 3.4226e-05 3.58071e-05 3.46459e-05 3.62417e-05 3.50659e-05 3.6676e-05
3.54857e-05 3.71101e-05 3.59052e-05 3.75439e-05 3.63244e-05 3.7977e-05 3.6743e-05 3.84096e-05 3.7161e-05 3.88413e-05
3.75782e-05 3.92721e-05 3.79945e-05 3.97018e-05 3.84098e-05 4.01302e-05 3.88238e-05 4.05574e-05 3.92366e-05 4.0983e-05
3.96479e-05 4.14069e-05 4.00575e-05 4.18291e-05 4.04655e-05 4.22493e-05 4.08716e-05 4.26675e-05 4.12756e-05 4.30834e-05
4.16775e-05 4.3497e-05 4.20771e-05 4.3908e-05 4.24742e-05 4.43164e-05 4.28688e-05 4.47219e-05 4.32606e-05 4.51245e-05
4.36496e-05 4.5524e-05 4.40355e-05 4.59202e-05 4.44183e-05 4.6313e-05 4.47979e-05 4.67023e-05 4.51739e-05 4.70879e-05
4.55464e-05 4.74696e-05 4.59152e-05 4.78474e-05 4.62801e-05 4.8221e-05 4.6641e-05 4.85903e-05 4.69978e-05 4.89553e-05
4.73503e-05 4.93157e-05 4.76984e-05 4.96713e-05 4.8042e-05 5.00222e-05 4.83808e-05 5.0368e-05 4.87149e-05 5.07088e-05
4.9044e-05 5.10443e-05 4.9368e-05 5.13744e-05 4.96868e-05 5.16989e-05 5.00003e-05 5.20179e-05 5.03083e-05 5.23311e-05
5.06107e-05 5.26383e-05 5.09074e-05 5.29396e-05 5.11983e-05 5.32346e-05 5.14832e-05 5.35235e-05 5.1762e-05 5.38059e-05
5.20347e-05 5.40818e-05 5.23011e-05 5.43511e-05 5.25611e-05 5.46136e-05 5.28145e-05 5.48694e-05 5.30613e-05 5.51181e-05
5.33015e-05 5.53598e-05 5.35348e-05 5.55944e-05 5.37611e-05 5.58217e-05 5.39805e-05 5.60417e-05 5.41928e-05 5.62542e-05
5.43978e-05 5.64592e-05 5.45956e-05 5.66566e-05 5.47861e-05 5.68463e-05 5.4969e-05 5.70282e-05 5.51445e-05 5.72023e-05
5.53124e-05 5.73685e-05 5.54726e-05 5.75266e-05 5.56251e-05 5.76767e-05 5.57698e-05 5.78187e-05 5.59067e-05 5.79525e-05
5.60356e-05 5.80781e-05 5.61566e-05 5.81954e-05 5.62695e-05 5.83043e-05 5.63745e-05 5.84049e-05 5.64713e-05 5.84971e-05
5.65599e-05 5.85808e-05 5.66404e-05 5.8656e-05 5.67127e-05 5.87227e-05 5.67768e-05 5.87809e-05 5.68326e-05 5.88305e-05
5.68802e-05 5.88715e-05 5.69194e-05 5.8904e-05 5.69504e-05 5.89278e-05 5.6973e-05 5.8943e-05 5.69873e-05 5.89497e-05
5.69933e-05 5.89478e-05 5.6991e-05 5.89373e-05 5.69804e-05 5.89181e-05 5.69615e-05 5.88904e-05 5.69343e-05 5.88541e-05
5.68988e-05 5.88092e-05 5.6855e-05 5.87559e-05 5.6803e-05 5.8694e-05 5.67428e-05 5.86237e-05 5.66744e-05 5.8545e-05
5.65979e-05 5.84579e-05 5.65133e-05 5.83625e-05 5.64207e-05 5.82588e-05 5.632e-05 5.81468e-05 5.62114e-05 5.80267e-05
5.60949e-05 5.78985e-05 5.59706e-05 5.77622e-05 5.58384e-05 5.7618e-05 5.56986e-05 5.74658e-05 5.55511e-05 5.73057e-05
5.5396e-05 5.71379e-05 5.52334e-05 5.69624e-05 5.50634e-05 5.67793e-05 5.4886e-05 5.65887e-05 5.47013e-05 5.63906e-05
5.45095e-05 5.61852e-05 5.43105e-05 5.59725e-05 5.41046e-05 5.57526e-05 5.38917e-05 5.55257e-05 5.3672e-05 5.52919e-05
5.34456e-05 5.50512e-05 5.32126e-05 5.48037e-05 5.2973e-05 5.45496e-05 5.27271e-05 5.4289e-05 5.24748e-05 5.4022e-05
5.22164e-05 5.37486e-05 5.19518e-05 5.34691e-05 5.16813e-05 5.31836e-05 5.1405e-05 5.28921e-05 5.1123e-05 5.25949e-05
5.08353e-05 5.22919e-05 5.05422e-05 5.19835e-05 5.02437e-05 5.16696e-05 4.994e-05 5.13504e-05 4.96312e-05 5.10261e-05
4.93174e-05 5.06968e-05 4.89988e-05 5.03627e-05 4.86756e-05 5.00238e-05 4.83477e-05 4.96803e-05 4.80155e-05 4.93324e-05
4.7679e-05 4.89803e-05 4.73383e-05 4.8624e-05 4.69937e-05 4.82637e-05 4.66452e-05 4.78996e-05 4.6293e-05 4.75319e-05
4.59373e-05 4.71606e-05 4.55782e-05 4.6786e-05 4.52159e-05 4.64082e-05 4.48505e-05 4.60274e-05 4.44822e-05 4.56438e-05
4.41112e-05 4.52574e-05 4.37376e-05 4.48686e-05 4.33616e-05 4.44775e-05 4.29833e-05 4.40843e-05 4.26031e-05 4.36891e-05
4.22209e-05 4.32922e-05 4.18371e-05 4.28938e-05 4.14519e-05 4.2494e-05 4.10654e-05 4.20932e-05 4.06778e-05 4.16915e-05
4.02894e-05 4.12892e-05 3.99005e-05 4.08865e-05 3.95111e-05 4.04838e-05 3.91217e-05 4.00812e-05 3.87325e-05 3.9679e-05
3.83438e-05 3.92777e-05 3.79558e-05 3.88774e-05 3.75689e-05 3.84786e-05 3.71834e-05 3.80817e-05 3.67997e-05 3.7687e-05
3.64183e-05 3.72951e-05 3.60394e-05 3.69062e-05 3.56637e-05 3.65211e-05 3.52915e-05 3.61402e-05 3.49234e-05 3.57642e-05
3.45601e-05 3.53936e-05 3.42021e-05 3.50293e-05 3.38501e-05 3.46719e-05 3.3505e-05 3.43225e-05 3.31674e-05 3.39818e-05
3.28385e-05 3.3651e-05 3.25191e-05 3.33311e-05 3.22103e-05 3.30234e-05 3.19134e-05 3.27293e-05 3.16296e-05 3.24502e-05
3.13604e-05 3.21878e-05 3.11074e-05 3.19438e-05 3.08722e-05 3.17201e-05 3.06568e-05 3.15188e-05 3.04631e-05 3.13421e-05
3.02931e-05 3.11923e-05 3.01492e-05 3.10718e-05 3.00337e-05 3.09831e-05 2.99487e-05 3.09285e-05 2.98965e-05 3.01477e-05
3.09099e-05 1.76482e-09 0 3.71203e-09 5.85109e-09 8.18333e-09 1.07119e-08 1.34427e-08 1.63828e-08 1.95408e-08
2.29262e-08 2.65498e-08 3.04228e-08 3.45571e-08 3.8965e-08 4.36592e-08 4.86526e-08 5.39585e-08 5.95902e-08 6.55612e-08
7.18854e-08 7.85767e-08 8.56491e-08 9.31171e-08 1.00995e-07 1.09298e-07 1.1804e-07 1.27237e-07 1.36905e-07 1.47058e-07
1.57713e-07 1.68886e-07 1.80593e-07 1.92851e-07 2.05677e-07 2.19088e-07 2.33101e-07 2.47735e-07 2.63007e-07 2.78936e-07
2.95541e-07 3.12839e-07 3.30851e-07 3.49596e-07 3.69094e-07 3.89365e-07 4.10429e-07 4.32307e-07 4.5502e-07 4.7859e-07
5.03039e-07 5.28388e-07 5.54659e-07 5.81876e-07 6.10062e-07 6.39239e-07 6.69433e-07 7.00666e-07 7.32964e-07 7.6635e-07
8.00851e-07 8.36492e-07 8.73298e-07 9.11297e-07 9.50514e-07 9.90976e-07 1.03271e-06 1.07575e-06 1.12011e-06 1.16584e-06
1.21294e-06 1.26147e-06 1.31144e-06 1.36288e-06 1.41583e-06 1.47031e-06 1.52636e-06 1.58401e-06 1.64329e-06 1.70424e-06
1.76687e-06 1.83124e-06 1.89736e-06 1.96528e-06 2.03503e-06 2.10664e-06 2.18015e-06 2.25558e-06 2.33299e-06 2.4124e-06
2.49384e-06 2.57736e-06 2.66299e-06 2.75076e-06 2.84072e-06 2.9329e-06 3.02733e-06 3.12406e-06 3.22312e-06 3.32456e-06
3.42839e-06 3.53468e-06 3.64344e-06 3.75473e-06 3.86858e-06 3.98503e-06 4.10411e-06 4.22587e-06 4.35035e-06 4.47757e-06
4.60758e-06 4.74043e-06 4.87614e-06 5.01475e-06 5.15631e-06 5.30084e-06 5.4484e-06 5.59901e-06 5.75271e-06 5.90954e-06
6.06953e-06 6.23273e-06 6.39916e-06 6.56886e-06 6.74188e-06 6.91823e-06 7.09795e-06 7.28108e-06 7.46766e-06 7.6577e-06
7.85125e-06 8.04834e-06 8.24899e-06 8.45323e-06 8.66109e-06 8.8726e-06 9.08779e-06 9.30668e-06 9.52929e-06 9.75565e-06
9.98579e-06 1.02197e-05 1.04575e-05 1.0699e-05 1.09445e-05 1.11937e-05 1.14469e-05 1.1704e-05 1.1965e-05 1.22299e-05
1.24987e-05 1.27715e-05 1.30482e-05 1.33288e-05 1.36134e-05 1.3902e-05 1.41945e-05 1.4491e-05 1.47914e-05 1.50958e-05
1.54041e-05 1.57163e-05 1.60325e-05 1.63525e-05 1.66764e-05 1.70042e-05 1.73359e-05 1.76714e-05 1.80106e-05 1.83537e-05
1.87005e-05 1.90511e-05 1.94053e-05 1.97632e-05 2.01247e-05 2.04897e-05 2.08583e-05 2.12304e-05 2.1606e-05 2.19849e-05
2.23672e-05 2.27527e-05 2.31415e-05 2.35335e-05 2.39286e-05 2.43267e-05 2.47278e-05 2.51318e-05 2.55387e-05 2.59483e-05
2.63607e-05 2.67756e-05 2.7193e-05 2.76129e-05 2.80352e-05 2.84597e-05 2.88864e-05 2.93152e-05 2.9746e-05 3.01787e-05
3.06132e-05 3.10493e-05 3.1487e-05 3.19262e-05 3.23668e-05 3.28086e-05 3.32516e-05 3.36955e-05 3.41404e-05 3.4586e-05
3.50323e-05 3.54791e-05 3.59264e-05 3.63739e-05 3.68215e-05 3.72692e-05 3.77168e-05 3.81641e-05 3.8611e-05 3.90573e-05
3.95031e-05 3.99479e-05 4.03919e-05 4.08347e-05 4.12763e-05 4.17166e-05 4.21552e-05 4.25922e-05 4.30274e-05 4.34606e-05
4.38917e-05 4.43205e-05 4.47468e-05 4.51706e-05 4.55917e-05 4.60098e-05 4.6425e-05 4.68369e-05 4.72456e-05 4.76507e-05
4.80522e-05 4.84499e-05 4.88436e-05 4.92333e-05 4.96187e-05 4.99998e-05 5.03763e-05 5.07481e-05 5.11151e-05 5.14772e-05
5.18341e-05 5.21858e-05 5.25321e-05 5.28728e-05 5.32079e-05 5.35372e-05 5.38605e-05 5.41778e-05 5.44889e-05 5.47937e-05
5.5092e-05 5.53837e-05 5.56688e-05 5.5947e-05 5.62184e-05 5.64826e-05 5.67398e-05 5.69897e-05 5.72322e-05 5.74673e-05
5.76948e-05 5.79147e-05 5.81268e-05 5.83311e-05 5.85275e-05 5.87158e-05 5.88961e-05 5.90683e-05 5.92322e-05 5.93879e-05
5.95351e-05 5.9674e-05 5.98044e-05 5.99262e-05 6.00395e-05 6.01441e-05 6.02401e-05 6.03274e-05 6.04059e-05 6.04757e-05
6.05367e-05 6.05889e-05 6.06322e-05 6.06667e-05 6.06923e-05 6.07091e-05 6.0717e-05 6.07161e-05 6.07063e-05 6.06877e-05
6.06602e-05 6.06238e-05 6.05787e-05 6.05248e-05 6.04621e-05 6.03907e-05 6.03107e-05 6.0222e-05 6.01247e-05 6.00189e-05
5.99046e-05 5.97819e-05 5.96508e-05 5.95115e-05 5.93638e-05 5.92081e-05 5.90442e-05 5.88723e-05 5.86924e-05 5.85048e-05
5.83093e-05 5.81062e-05 5.78955e-05 5.76773e-05 5.74517e-05 5.72189e-05 5.69788e-05 5.67317e-05 5.64776e-05 5.62167e-05
5.59491e-05 5.56748e-05 5.5394e-05 5.51069e-05 5.48135e-05 5.4514e-05 5.42086e-05 5.38972e-05 5.35801e-05 5.32575e-05
5.29294e-05 5.2596e-05 5.22574e-05 5.19138e-05 5.15653e-05 5.12121e-05 5.08543e-05 5.04921e-05 5.01256e-05 4.9755e-05
4.93804e-05 4.90021e-05 4.86201e-05 4.82346e-05 4.78459e-05 4.7454e-05 4.70592e-05 4.66616e-05 4.62614e-05 4.58588e-05
4.5454e-05 4.50472e-05 4.46386e-05 4.42284e-05 4.38168e-05 4.34041e-05 4.29904e-05 4.25761e-05 4.21614e-05 4.17465e-05
4.13318e-05 4.09175e-05 4.0504e-05 4.00916e-05 3.96807e-05 3.92716e-05 3.88648e-05 3.84608e-05 3.80599e-05 3.76627e-05
3.72699e-05 3.6882e-05 3.64996e-05 3.61236e-05 3.57547e-05 3.53938e-05 3.50418e-05 3.46999e-05 3.43691e-05 3.40507e-05
3.37462e-05 3.3457e-05 3.31847e-05 3.29313e-05 3.26987e-05 3.2489e-05 3.23046e-05 3.21478e-05 3.20212e-05 3.19277e-05
3.18697e-05 3.185e-05 1.73195e-09 0 3.64203e-09 5.74129e-09 8.03627e-09 1.05322e-08 1.3235e-08 1.61516e-08
1.92902e-08 2.26603e-08 2.62724e-08 3.01375e-08 3.42677e-08 3.86752e-08 4.33728e-08 4.83735e-08 5.36906e-08 5.93377e-08
6.53285e-08 7.1677e-08 7.83973e-08 8.55039e-08 9.30112e-08 1.00934e-07 1.09288e-07 1.18087e-07 1.27348e-07 1.37087e-07
1.47318e-07 1.58059e-07 1.69326e-07 1.81136e-07 1.93506e-07 2.06453e-07 2.19995e-07 2.34151e-07 2.48937e-07 2.64374e-07
2.80479e-07 2.97271e-07 3.14771e-07 3.32998e-07 3.51972e-07 3.71713e-07 3.92243e-07 4.13581e-07 4.3575e-07 4.58772e-07
4.82667e-07 5.07459e-07 5.33169e-07 5.59822e-07 5.87441e-07 6.16049e-07 6.4567e-07 6.76328e-07 7.0805e-07 7.40858e-07
7.7478e-07 8.09841e-07 8.46067e-07 8.83484e-07 9.22121e-07 9.62003e-07 1.00316e-06 1.04562e-06 1.08941e-06 1.13455e-06
1.18109e-06 1.22905e-06 1.27845e-06 1.32933e-06 1.38172e-06 1.43565e-06 1.49115e-06 1.54826e-06 1.607e-06 1.66741e-06
1.72953e-06 1.79337e-06 1.85899e-06 1.92641e-06 1.99567e-06 2.06679e-06 2.13983e-06 2.21481e-06 2.29176e-06 2.37073e-06
2.45175e-06 2.53486e-06 2.62009e-06 2.70748e-06 2.79706e-06 2.88889e-06 2.98299e-06 3.0794e-06 3.17816e-06 3.27931e-06
3.38289e-06 3.48893e-06 3.59748e-06 3.70857e-06 3.82225e-06 3.93854e-06 4.05751e-06 4.17917e-06 4.30357e-06 4.43075e-06
4.56076e-06 4.69362e-06 4.82938e-06 4.96808e-06 5.10975e-06 5.25444e-06 5.40218e-06 5.55302e-06 5.70699e-06 5.86412e-06
6.02446e-06 6.18805e-06 6.35491e-06 6.5251e-06 6.69863e-06 6.87556e-06 7.05591e-06 7.23972e-06 7.42703e-06 7.61786e-06
7.81225e-06 8.01023e-06 8.21184e-06 8.4171e-06 8.62604e-06 8.8387e-06 9.0551e-06 9.27527e-06 9.49924e-06 9.72702e-06
9.95865e-06 1.01942e-05 1.04335e-05 1.06768e-05 1.09241e-05 1.11753e-05 1.14304e-05 1.16895e-05 1.19527e-05 1.22198e-05
1.2491e-05 1.27662e-05 1.30454e-05 1.33287e-05 1.3616e-05 1.39074e-05 1.42029e-05 1.45024e-05 1.48059e-05 1.51136e-05
1.54252e-05 1.5741e-05 1.60607e-05 1.63845e-05 1.67122e-05 1.7044e-05 1.73797e-05 1.77194e-05 1.80631e-05 1.84106e-05
1.8762e-05 1.91173e-05 1.94764e-05 1.98393e-05 2.02059e-05 2.05763e-05 2.09503e-05 2.1328e-05 2.17093e-05 2.20941e-05
2.24824e-05 2.28741e-05 2.32692e-05 2.36677e-05 2.40694e-05 2.44743e-05 2.48823e-05 2.52935e-05 2.57076e-05 2.61246e-05
2.65445e-05 2.69672e-05 2.73926e-05 2.78206e-05 2.82511e-05 2.8684e-05 2.91193e-05 2.95568e-05 2.99965e-05 3.04382e-05
3.08819e-05 3.13275e-05 3.17748e-05 3.22237e-05 3.26741e-05 3.3126e-05 3.35792e-05 3.40336e-05 3.4489e-05 3.49453e-05
3.54025e-05 3.58604e-05 3.63188e-05 3.67777e-05 3.72369e-05 3.76963e-05 3.81556e-05 3.86149e-05 3.9074e-05 3.95327e-05
3.99908e-05 4.04483e-05 4.0905e-05 4.13607e-05 4.18153e-05 4.22687e-05 4.27206e-05 4.31711e-05 4.36198e-05 4.40666e-05
4.45115e-05 4.49542e-05 4.53946e-05 4.58325e-05 4.62678e-05 4.67003e-05 4.71299e-05 4.75564e-05 4.79797e-05 4.83995e-05
4.88158e-05 4.92284e-05 4.96372e-05 5.00419e-05 5.04424e-05 5.08386e-05 5.12304e-05 5.16175e-05 5.19998e-05 5.23772e-05
5.27495e-05 5.31167e-05 5.34784e-05 5.38346e-05 5.41852e-05 5.453e-05 5.48688e-05 5.52016e-05 5.55282e-05 5.58484e-05
5.61622e-05 5.64694e-05 5.67698e-05 5.70635e-05 5.73501e-05 5.76297e-05 5.7902e-05 5.81671e-05 5.84247e-05 5.86748e-05
5.89172e-05 5.91519e-05 5.93788e-05 5.95978e-05 5.98087e-05 6.00115e-05 6.02062e-05 6.03925e-05 6.05705e-05 6.07401e-05
6.09011e-05 6.10537e-05 6.11975e-05 6.13327e-05 6.14592e-05 6.15768e-05 6.16856e-05 6.17856e-05 6.18766e-05 6.19586e-05
6.20317e-05 6.20957e-05 6.21507e-05 6.21966e-05 6.22335e-05 6.22613e-05 6.22799e-05 6.22895e-05 6.229e-05 6.22816e-05
6.22639e-05 6.22372e-05 6.22013e-05 6.21565e-05 6.21026e-05 6.20398e-05 6.1968e-05 6.18873e-05 6.17977e-05 6.16994e-05
6.15922e-05 6.14764e-05 6.13519e-05 6.12188e-05 6.10772e-05 6.09271e-05 6.07686e-05 6.06018e-05 6.04267e-05 6.02436e-05
6.00523e-05 5.98531e-05 5.96459e-05 5.9431e-05 5.92084e-05 5.89782e-05 5.87405e-05 5.84954e-05 5.8243e-05 5.79835e-05
5.77169e-05 5.74434e-05 5.71631e-05 5.68762e-05 5.65826e-05 5.62826e-05 5.59764e-05 5.56639e-05 5.53455e-05 5.50211e-05
5.4691e-05 5.43553e-05 5.40141e-05 5.36676e-05 5.33159e-05 5.29591e-05 5.25975e-05 5.22312e-05 5.18603e-05 5.1485e-05
5.11055e-05 5.07218e-05 5.03343e-05 4.9943e-05 4.95481e-05 4.91498e-05 4.87482e-05 4.83436e-05 4.79362e-05 4.7526e-05
4.71134e-05 4.66984e-05 4.62814e-05 4.58625e-05 4.54419e-05 4.50199e-05 4.45966e-05 4.41724e-05 4.37474e-05 4.3322e-05
4.28964e-05 4.24709e-05 4.20458e-05 4.16214e-05 4.11981e-05 4.07763e-05 4.03563e-05 3.99385e-05 3.95235e-05 3.91117e-05
3.87036e-05 3.82998e-05 3.7901e-05 3.75078e-05 3.7121e-05 3.67413e-05 3.63697e-05 3.60072e-05 3.56547e-05 3.53135e-05
3.49849e-05 3.46702e-05 3.4371e-05 3.40891e-05 3.38262e-05 3.35845e-05 3.33661e-05 3.31735e-05 3.30092e-05 3.2876e-05
3.27771e-05 3.27154e-05 3.26943e-05 1.6994e-09 0 3.5718e-09 5.62831e-09 7.87856e-09 1.03305e-08 1.29915e-08
1.58695e-08 1.89729e-08 2.23115e-08 2.58956e-08 2.97363e-08 3.38456e-08 3.82356e-08 4.29191e-08 4.79091e-08 5.32188e-08
5.8862e-08 6.48523e-08 7.12039e-08 7.79311e-08 8.50484e-08 9.25707e-08 1.00513e-07 1.0889e-07 1.17718e-07 1.27013e-07
1.3679e-07 1.47066e-07 1.57857e-07 1.69181e-07 1.81054e-07 1.93495e-07 2.0652e-07 2.20149e-07 2.34398e-07 2.49287e-07
2.64835e-07 2.81062e-07 2.97986e-07 3.15627e-07 3.34007e-07 3.53144e-07 3.73061e-07 3.93778e-07 4.15317e-07 4.37699e-07
4.60948e-07 4.85084e-07 5.10132e-07 5.36115e-07 5.63055e-07 5.90977e-07 6.19905e-07 6.49863e-07 6.80878e-07 7.12973e-07
7.46175e-07 7.8051e-07 8.16004e-07 8.52684e-07 8.90577e-07 9.29712e-07 9.70115e-07 1.01181e-06 1.05484e-06 1.09922e-06
1.14499e-06 1.19217e-06 1.24079e-06 1.29089e-06 1.3425e-06 1.39564e-06 1.45035e-06 1.50667e-06 1.56462e-06 1.62424e-06