/*--------------------------------*- C++ -*----------------------------------*\
  =========                 |
  \\      /  F ield         | OpenFOAM: The Open Source CFD Toolbox
   \\    /   O peration     | Website:  https://openfoam.org
    \\  /    A nd           | Version:  dev
     \\/     M anipulation  |
\*---------------------------------------------------------------------------*/
FoamFile
{
    format      ascii;
    class       volScalarField;
    location    "0.32";
    object      beta;
}
// * * * * * * * * * * * * * * * * * * * * * * * * * * * * * * * * * * * * * //

dimensions      [0 0 0 0 0 0 0];

internalField   uniform 0;

boundaryField
{
    frontAndBack
    {
        type            empty;
    }
    inlet
    {
        type            calculated;
        value           uniform 0;
    }
    outlet
    {
        type            calculated;
        value           uniform 0;
    }
    substrate
    {
        type            calculated;
        value           nonuniform List<scalar> 
400
(
0.00276608
0.00290564
0.00300803
0.00310162
0.00319055
0.00327519
0.00335654
0.00343547
0.00351263
0.00358845
0.00366329
0.00373739
0.00381096
0.00388416
0.0039571
0.00402986
0.00410251
0.00417509
0.00424762
0.00432013
0.00439262
0.00446508
0.00453751
0.00460989
0.00468221
0.00475445
0.00482659
0.0048986
0.00497047
0.00504216
0.00511365
0.00518491
0.00525593
0.00532667
0.00539712
0.00546724
0.00553702
0.00560643
0.00567545
0.00574405
0.00581222
0.00587993
0.00594716
0.0060139
0.00608013
0.00614583
0.00621098
0.00627556
0.00633957
0.00640298
0.00646578
0.00652796
0.00658951
0.00665042
0.00671067
0.00677025
0.00682916
0.00688739
0.00694493
0.00700177
0.00705791
0.00711334
0.00716806
0.00722205
0.00727533
0.00732788
0.00737971
0.0074308
0.00748117
0.0075308
0.00757971
0.00762788
0.00767533
0.00772204
0.00776803
0.0078133
0.00785785
0.00790167
0.00794479
0.00798719
0.00802889
0.00806988
0.00811018
0.00814978
0.0081887
0.00822694
0.0082645
0.00830139
0.00833762
0.0083732
0.00840812
0.00844241
0.00847606
0.00850908
0.00854148
0.00857326
0.00860445
0.00863503
0.00866502
0.00869443
0.00872327
0.00875154
0.00877926
0.00880642
0.00883304
0.00885912
0.00888468
0.00890973
0.00893426
0.00895829
0.00898182
0.00900487
0.00902745
0.00904955
0.00907119
0.00909238
0.00911312
0.00913342
0.00915329
0.00917274
0.00919177
0.00921039
0.00922862
0.00924645
0.0092639
0.00928096
0.00929766
0.00931399
0.00932996
0.00934558
0.00936086
0.0093758
0.00939042
0.0094047
0.00941867
0.00943233
0.00944569
0.00945874
0.0094715
0.00948398
0.00949617
0.00950809
0.00951974
0.00953113
0.00954226
0.00955313
0.00956376
0.00957415
0.0095843
0.00959421
0.0096039
0.00961337
0.00962262
0.00963165
0.00964048
0.00964911
0.00965753
0.00966576
0.0096738
0.00968166
0.00968933
0.00969682
0.00970414
0.00971129
0.00971827
0.00972509
0.00973175
0.00973825
0.0097446
0.0097508
0.00975686
0.00976278
0.00976855
0.00977419
0.0097797
0.00978507
0.00979032
0.00979545
0.00980046
0.00980534
0.00981011
0.00981477
0.00981932
0.00982376
0.00982809
0.00983232
0.00983645
0.00984049
0.00984442
0.00984827
0.00985202
0.00985568
0.00985925
0.00986274
0.00986615
0.00986947
0.00987272
0.00987588
0.00987898
0.00988199
0.00988494
0.00988781
0.00989062
0.00989335
0.00989602
0.00989863
0.00990118
0.00990366
0.00990608
0.00990845
0.00991075
0.00991301
0.0099152
0.00991735
0.00991944
0.00992148
0.00992347
0.00992542
0.00992731
0.00992916
0.00993097
0.00993273
0.00993445
0.00993613
0.00993776
0.00993936
0.00994091
0.00994243
0.00994391
0.00994536
0.00994677
0.00994814
0.00994949
0.00995079
0.00995207
0.00995332
0.00995453
0.00995571
0.00995687
0.009958
0.00995909
0.00996017
0.00996121
0.00996223
0.00996322
0.00996419
0.00996514
0.00996606
0.00996696
0.00996783
0.00996869
0.00996952
0.00997033
0.00997112
0.00997189
0.00997264
0.00997338
0.00997409
0.00997479
0.00997547
0.00997613
0.00997677
0.0099774
0.00997802
0.00997861
0.00997919
0.00997976
0.00998031
0.00998085
0.00998138
0.00998189
0.00998239
0.00998287
0.00998334
0.0099838
0.00998425
0.00998469
0.00998511
0.00998553
0.00998593
0.00998633
0.00998671
0.00998708
0.00998744
0.0099878
0.00998814
0.00998848
0.0099888
0.00998912
0.00998943
0.00998973
0.00999002
0.00999031
0.00999059
0.00999086
0.00999112
0.00999138
0.00999163
0.00999187
0.0099921
0.00999233
0.00999256
0.00999277
0.00999298
0.00999319
0.00999339
0.00999358
0.00999377
0.00999396
0.00999414
0.00999431
0.00999448
0.00999464
0.0099948
0.00999496
0.00999511
0.00999526
0.0099954
0.00999554
0.00999567
0.0099958
0.00999593
0.00999605
0.00999617
0.00999629
0.0099964
0.00999651
0.00999662
0.00999672
0.00999683
0.00999692
0.00999702
0.00999711
0.0099972
0.00999729
0.00999737
0.00999746
0.00999753
0.00999761
0.00999769
0.00999776
0.00999783
0.0099979
0.00999797
0.00999803
0.00999809
0.00999816
0.00999821
0.00999827
0.00999833
0.00999838
0.00999843
0.00999848
0.00999853
0.00999858
0.00999863
0.00999867
0.00999871
0.00999876
0.0099988
0.00999884
0.00999888
0.00999891
0.00999895
0.00999898
0.00999902
0.00999905
0.00999908
0.00999911
0.00999914
0.00999917
0.0099992
0.00999922
0.00999925
0.00999928
0.0099993
0.00999932
0.00999935
0.00999937
0.00999939
0.00999941
0.00999943
0.00999945
0.00999946
0.00999948
0.0099995
0.00999951
0.00999953
0.00999954
0.00999955
0.00999957
0.00999958
0.00999959
0.0099996
0.0099996
0.00999961
0.00999962
0.00999962
0.00999962
0.00999962
)
;
    }
    Wall
    {
        type            calculated;
        value           nonuniform List<scalar> 
400
(
0.00276608
0.00290564
0.00300802
0.00310161
0.00319055
0.0032752
0.00335655
0.00343549
0.00351265
0.00358848
0.00366331
0.00373742
0.00381099
0.00388419
0.00395712
0.00402988
0.00410253
0.00417511
0.00424764
0.00432015
0.00439263
0.00446509
0.00453752
0.0046099
0.00468222
0.00475446
0.0048266
0.00489861
0.00497047
0.00504216
0.00511364
0.00518491
0.00525593
0.00532667
0.00539711
0.00546724
0.00553701
0.00560642
0.00567544
0.00574404
0.0058122
0.00587991
0.00594715
0.00601389
0.00608012
0.00614581
0.00621096
0.00627555
0.00633955
0.00640296
0.00646576
0.00652795
0.00658949
0.0066504
0.00671065
0.00677023
0.00682915
0.00688737
0.00694491
0.00700175
0.00705789
0.00711332
0.00716804
0.00722203
0.00727531
0.00732786
0.00737969
0.00743078
0.00748115
0.00753078
0.00757969
0.00762786
0.00767531
0.00772202
0.00776801
0.00781328
0.00785783
0.00790165
0.00794477
0.00798717
0.00802887
0.00806986
0.00811016
0.00814976
0.00818868
0.00822692
0.00826448
0.00830137
0.00833761
0.00837318
0.00840811
0.00844239
0.00847604
0.00850906
0.00854146
0.00857325
0.00860443
0.00863502
0.00866501
0.00869442
0.00872326
0.00875153
0.00877924
0.00880641
0.00883303
0.00885911
0.00888467
0.00890971
0.00893425
0.00895828
0.00898181
0.00900486
0.00902743
0.00904954
0.00907118
0.00909237
0.00911311
0.00913341
0.00915328
0.00917273
0.00919176
0.00921039
0.00922861
0.00924644
0.00926389
0.00928095
0.00929765
0.00931398
0.00932995
0.00934558
0.00936085
0.0093758
0.00939041
0.0094047
0.00941867
0.00943232
0.00944568
0.00945873
0.0094715
0.00948397
0.00949617
0.00950809
0.00951974
0.00953112
0.00954225
0.00955313
0.00956376
0.00957414
0.00958429
0.00959421
0.0096039
0.00961336
0.00962261
0.00963165
0.00964048
0.0096491
0.00965753
0.00966576
0.0096738
0.00968165
0.00968933
0.00969682
0.00970414
0.00971129
0.00971827
0.00972509
0.00973174
0.00973825
0.0097446
0.0097508
0.00975686
0.00976277
0.00976855
0.00977419
0.00977969
0.00978507
0.00979032
0.00979545
0.00980045
0.00980534
0.00981011
0.00981477
0.00981932
0.00982376
0.00982809
0.00983232
0.00983645
0.00984049
0.00984442
0.00984826
0.00985202
0.00985568
0.00985925
0.00986274
0.00986615
0.00986947
0.00987272
0.00987588
0.00987897
0.00988199
0.00988493
0.00988781
0.00989061
0.00989335
0.00989602
0.00989863
0.00990117
0.00990366
0.00990608
0.00990844
0.00991075
0.009913
0.0099152
0.00991735
0.00991944
0.00992148
0.00992347
0.00992542
0.00992731
0.00992916
0.00993097
0.00993273
0.00993445
0.00993612
0.00993776
0.00993936
0.00994091
0.00994243
0.00994391
0.00994536
0.00994677
0.00994814
0.00994948
0.00995079
0.00995207
0.00995331
0.00995453
0.00995571
0.00995687
0.00995799
0.00995909
0.00996016
0.00996121
0.00996223
0.00996322
0.00996419
0.00996514
0.00996606
0.00996696
0.00996783
0.00996869
0.00996952
0.00997033
0.00997112
0.00997189
0.00997264
0.00997338
0.00997409
0.00997479
0.00997547
0.00997613
0.00997677
0.0099774
0.00997802
0.00997861
0.00997919
0.00997976
0.00998031
0.00998085
0.00998138
0.00998189
0.00998239
0.00998287
0.00998334
0.0099838
0.00998425
0.00998469
0.00998511
0.00998553
0.00998593
0.00998633
0.00998671
0.00998708
0.00998744
0.0099878
0.00998814
0.00998848
0.0099888
0.00998912
0.00998943
0.00998973
0.00999002
0.00999031
0.00999059
0.00999086
0.00999112
0.00999138
0.00999162
0.00999187
0.0099921
0.00999233
0.00999256
0.00999277
0.00999298
0.00999319
0.00999339
0.00999358
0.00999377
0.00999396
0.00999413
0.00999431
0.00999448
0.00999464
0.0099948
0.00999496
0.00999511
0.00999525
0.0099954
0.00999554
0.00999567
0.0099958
0.00999593
0.00999605
0.00999617
0.00999629
0.0099964
0.00999651
0.00999662
0.00999672
0.00999683
0.00999692
0.00999702
0.00999711
0.0099972
0.00999729
0.00999737
0.00999746
0.00999753
0.00999761
0.00999769
0.00999776
0.00999783
0.0099979
0.00999797
0.00999803
0.00999809
0.00999815
0.00999821
0.00999827
0.00999833
0.00999838
0.00999843
0.00999848
0.00999853
0.00999858
0.00999863
0.00999867
0.00999871
0.00999876
0.0099988
0.00999884
0.00999888
0.00999891
0.00999895
0.00999898
0.00999902
0.00999905
0.00999908
0.00999911
0.00999914
0.00999917
0.0099992
0.00999922
0.00999925
0.00999928
0.0099993
0.00999932
0.00999935
0.00999937
0.00999939
0.00999941
0.00999943
0.00999945
0.00999946
0.00999948
0.0099995
0.00999951
0.00999953
0.00999954
0.00999955
0.00999957
0.00999958
0.00999959
0.0099996
0.0099996
0.00999961
0.00999962
0.00999962
0.00999962
0.00999962
)
;
    }
}


// ************************************************************************* //
