/*--------------------------------*- C++ -*----------------------------------*\
  =========                 |
  \\      /  F ield         | OpenFOAM: The Open Source CFD Toolbox
   \\    /   O peration     | Website:  https://openfoam.org
    \\  /    A nd           | Version:  dev
     \\/     M anipulation  |
\*---------------------------------------------------------------------------*/
FoamFile
{
    format      ascii;
    class       volScalarField;
    location    "0.32";
    object      Exp1;
}
// * * * * * * * * * * * * * * * * * * * * * * * * * * * * * * * * * * * * * //

dimensions      [0 0 0 0 0 0 0];

internalField   uniform 0;

boundaryField
{
    frontAndBack
    {
        type            empty;
    }
    inlet
    {
        type            calculated;
        value           uniform 0;
    }
    outlet
    {
        type            calculated;
        value           uniform 0;
    }
    substrate
    {
        type            calculated;
        value           nonuniform List<scalar> 
400
(
9.13203e-09
2.90841e-08
5.10293e-08
7.48707e-08
1.00619e-07
1.28358e-07
1.58168e-07
1.90134e-07
2.2435e-07
2.60918e-07
2.99947e-07
3.41549e-07
3.85841e-07
4.32942e-07
4.82973e-07
5.36055e-07
5.92313e-07
6.51869e-07
7.14849e-07
7.81377e-07
8.51577e-07
9.25577e-07
1.0035e-06
1.08548e-06
1.17163e-06
1.26209e-06
1.35698e-06
1.45643e-06
1.56057e-06
1.66953e-06
1.78344e-06
1.90243e-06
2.02663e-06
2.15618e-06
2.29119e-06
2.43181e-06
2.57817e-06
2.7304e-06
2.88863e-06
3.053e-06
3.22363e-06
3.40066e-06
3.58422e-06
3.77445e-06
3.97147e-06
4.17542e-06
4.38642e-06
4.60461e-06
4.83012e-06
5.06307e-06
5.3036e-06
5.55183e-06
5.80789e-06
6.0719e-06
6.34399e-06
6.62428e-06
6.91289e-06
7.20994e-06
7.51555e-06
7.82983e-06
8.15291e-06
8.48489e-06
8.82589e-06
9.17601e-06
9.53537e-06
9.90405e-06
1.02822e-05
1.06698e-05
1.10671e-05
1.14741e-05
1.1891e-05
1.23177e-05
1.27544e-05
1.32012e-05
1.36581e-05
1.41253e-05
1.46027e-05
1.50904e-05
1.55886e-05
1.60973e-05
1.66164e-05
1.71461e-05
1.76864e-05
1.82374e-05
1.8799e-05
1.93713e-05
1.99544e-05
2.05481e-05
2.11527e-05
2.17679e-05
2.23939e-05
2.30306e-05
2.36781e-05
2.43362e-05
2.5005e-05
2.56845e-05
2.63745e-05
2.70751e-05
2.77861e-05
2.85075e-05
2.92393e-05
2.99814e-05
3.07336e-05
3.14959e-05
3.22682e-05
3.30504e-05
3.38423e-05
3.46438e-05
3.54548e-05
3.62751e-05
3.71046e-05
3.79432e-05
3.87905e-05
3.96466e-05
4.05111e-05
4.1384e-05
4.22649e-05
4.31536e-05
4.40501e-05
4.49539e-05
4.58649e-05
4.67828e-05
4.77074e-05
4.86385e-05
4.95756e-05
5.05186e-05
5.14671e-05
5.24209e-05
5.33796e-05
5.4343e-05
5.53107e-05
5.62824e-05
5.72577e-05
5.82363e-05
5.92178e-05
6.02019e-05
6.11882e-05
6.21764e-05
6.3166e-05
6.41567e-05
6.5148e-05
6.61396e-05
6.71311e-05
6.81221e-05
6.91121e-05
7.01007e-05
7.10875e-05
7.2072e-05
7.30539e-05
7.40327e-05
7.5008e-05
7.59793e-05
7.69461e-05
7.79081e-05
7.88647e-05
7.98155e-05
8.07602e-05
8.16981e-05
8.26289e-05
8.35521e-05
8.44672e-05
8.53739e-05
8.62715e-05
8.71598e-05
8.80383e-05
8.89064e-05
8.97638e-05
9.061e-05
9.14446e-05
9.22672e-05
9.30772e-05
9.38744e-05
9.46582e-05
9.54283e-05
9.61843e-05
9.69257e-05
9.76522e-05
9.83633e-05
9.90587e-05
9.97381e-05
0.000100401
0.000101047
0.000101676
0.000102287
0.000102881
0.000103457
0.000104014
0.000104552
0.000105071
0.000105571
0.000106051
0.000106512
0.000106952
0.000107372
0.000107772
0.000108151
0.000108509
0.000108845
0.000109161
0.000109455
0.000109727
0.000109978
0.000110207
0.000110414
0.000110599
0.000110762
0.000110903
0.000111021
0.000111117
0.000111191
0.000111243
0.000111272
0.00011128
0.000111265
0.000111228
0.000111168
0.000111087
0.000110984
0.000110858
0.000110712
0.000110543
0.000110353
0.000110142
0.000109909
0.000109656
0.000109381
0.000109087
0.000108771
0.000108436
0.000108081
0.000107706
0.000107311
0.000106898
0.000106465
0.000106014
0.000105545
0.000105058
0.000104553
0.00010403
0.000103491
0.000102935
0.000102362
0.000101774
0.00010117
0.00010055
9.9916e-05
9.92671e-05
9.8604e-05
9.79272e-05
9.72369e-05
9.65336e-05
9.58178e-05
9.50897e-05
9.43498e-05
9.35985e-05
9.28362e-05
9.20633e-05
9.12803e-05
9.04875e-05
8.96854e-05
8.88743e-05
8.80547e-05
8.7227e-05
8.63917e-05
8.5549e-05
8.46995e-05
8.38436e-05
8.29816e-05
8.21139e-05
8.12411e-05
8.03634e-05
7.94812e-05
7.8595e-05
7.77052e-05
7.68122e-05
7.59162e-05
7.50178e-05
7.41172e-05
7.3215e-05
7.23113e-05
7.14066e-05
7.05013e-05
6.95956e-05
6.869e-05
6.77848e-05
6.68802e-05
6.59767e-05
6.50746e-05
6.41742e-05
6.32757e-05
6.23795e-05
6.14859e-05
6.05951e-05
5.97075e-05
5.88233e-05
5.79428e-05
5.70663e-05
5.61939e-05
5.5326e-05
5.44628e-05
5.36045e-05
5.27514e-05
5.19036e-05
5.10613e-05
5.02249e-05
4.93944e-05
4.857e-05
4.7752e-05
4.69404e-05
4.61356e-05
4.53375e-05
4.45465e-05
4.37625e-05
4.29858e-05
4.22165e-05
4.14547e-05
4.07005e-05
3.9954e-05
3.92154e-05
3.84847e-05
3.7762e-05
3.70474e-05
3.6341e-05
3.56429e-05
3.4953e-05
3.42716e-05
3.35985e-05
3.29339e-05
3.22778e-05
3.16303e-05
3.09913e-05
3.03609e-05
2.97392e-05
2.91261e-05
2.85216e-05
2.79257e-05
2.73385e-05
2.676e-05
2.61901e-05
2.56288e-05
2.50761e-05
2.45319e-05
2.39964e-05
2.34693e-05
2.29508e-05
2.24407e-05
2.19391e-05
2.14458e-05
2.09608e-05
2.04842e-05
2.00158e-05
1.95556e-05
1.91035e-05
1.86595e-05
1.82235e-05
1.77955e-05
1.73755e-05
1.69632e-05
1.65588e-05
1.6162e-05
1.5773e-05
1.53915e-05
1.50176e-05
1.46512e-05
1.42922e-05
1.39406e-05
1.35963e-05
1.32593e-05
1.29296e-05
1.2607e-05
1.22916e-05
1.19833e-05
1.16821e-05
1.1388e-05
1.11011e-05
1.08212e-05
1.05485e-05
1.0283e-05
1.00247e-05
9.77373e-06
9.53021e-06
9.29424e-06
9.066e-06
8.84567e-06
8.63349e-06
8.42974e-06
8.23473e-06
8.04885e-06
7.87255e-06
7.70631e-06
7.55074e-06
7.40648e-06
7.27428e-06
7.15499e-06
7.04952e-06
6.9589e-06
6.88421e-06
6.82659e-06
6.7872e-06
6.76709e-06
)
;
    }
    Wall
    {
        type            calculated;
        value           nonuniform List<scalar> 
400
(
9.13189e-09
2.90837e-08
5.10284e-08
7.48694e-08
1.00617e-07
1.28355e-07
1.58165e-07
1.9013e-07
2.24345e-07
2.60912e-07
2.99939e-07
3.4154e-07
3.8583e-07
4.32929e-07
4.82958e-07
5.36038e-07
5.92293e-07
6.51847e-07
7.14824e-07
7.81349e-07
8.51547e-07
9.25544e-07
1.00346e-06
1.08544e-06
1.17159e-06
1.26204e-06
1.35693e-06
1.45638e-06
1.56052e-06
1.66948e-06
1.78338e-06
1.90237e-06
2.02657e-06
2.15611e-06
2.29112e-06
2.43174e-06
2.5781e-06
2.73032e-06
2.88855e-06
3.05291e-06
3.22354e-06
3.40057e-06
3.58412e-06
3.77435e-06
3.97136e-06
4.1753e-06
4.3863e-06
4.60449e-06
4.82999e-06
5.06294e-06
5.30347e-06
5.55169e-06
5.80774e-06
6.07175e-06
6.34383e-06
6.62412e-06
6.91272e-06
7.20976e-06
7.51537e-06
7.82965e-06
8.15272e-06
8.4847e-06
8.82569e-06
9.17581e-06
9.53515e-06
9.90383e-06
1.0282e-05
1.06696e-05
1.10669e-05
1.14739e-05
1.18907e-05
1.23174e-05
1.27542e-05
1.32009e-05
1.36578e-05
1.4125e-05
1.46024e-05
1.50901e-05
1.55883e-05
1.60969e-05
1.66161e-05
1.71458e-05
1.76861e-05
1.8237e-05
1.87987e-05
1.9371e-05
1.9954e-05
2.05478e-05
2.11523e-05
2.17675e-05
2.23935e-05
2.30302e-05
2.36777e-05
2.43358e-05
2.50046e-05
2.5684e-05
2.6374e-05
2.70746e-05
2.77856e-05
2.8507e-05
2.92388e-05
2.99809e-05
3.07331e-05
3.14954e-05
3.22677e-05
3.30498e-05
3.38417e-05
3.46432e-05
3.54542e-05
3.62745e-05
3.7104e-05
3.79425e-05
3.87899e-05
3.9646e-05
4.05105e-05
4.13833e-05
4.22642e-05
4.3153e-05
4.40494e-05
4.49532e-05
4.58642e-05
4.67821e-05
4.77067e-05
4.86377e-05
4.95748e-05
5.05178e-05
5.14663e-05
5.24201e-05
5.33789e-05
5.43422e-05
5.53099e-05
5.62816e-05
5.72568e-05
5.82354e-05
5.9217e-05
6.02011e-05
6.11874e-05
6.21755e-05
6.31651e-05
6.41558e-05
6.51471e-05
6.61387e-05
6.71302e-05
6.81212e-05
6.91112e-05
7.00998e-05
7.10866e-05
7.20711e-05
7.3053e-05
7.40318e-05
7.50071e-05
7.59783e-05
7.69452e-05
7.79071e-05
7.88637e-05
7.98146e-05
8.07592e-05
8.16971e-05
8.26279e-05
8.35511e-05
8.44662e-05
8.53729e-05
8.62706e-05
8.71588e-05
8.80373e-05
8.89054e-05
8.97628e-05
9.0609e-05
9.14436e-05
9.22662e-05
9.30762e-05
9.38734e-05
9.46572e-05
9.54273e-05
9.61833e-05
9.69247e-05
9.76512e-05
9.83623e-05
9.90577e-05
9.97371e-05
0.0001004
0.000101046
0.000101675
0.000102286
0.00010288
0.000103456
0.000104013
0.000104551
0.00010507
0.00010557
0.00010605
0.000106511
0.000106951
0.000107371
0.000107771
0.00010815
0.000108508
0.000108845
0.00010916
0.000109454
0.000109727
0.000109977
0.000110206
0.000110413
0.000110598
0.000110761
0.000110902
0.00011102
0.000111116
0.00011119
0.000111242
0.000111272
0.000111279
0.000111264
0.000111227
0.000111168
0.000111086
0.000110983
0.000110858
0.000110711
0.000110542
0.000110352
0.000110141
0.000109909
0.000109655
0.000109381
0.000109086
0.000108771
0.000108435
0.00010808
0.000107705
0.000107311
0.000106897
0.000106465
0.000106014
0.000105545
0.000105057
0.000104552
0.00010403
0.000103491
0.000102934
0.000102362
0.000101774
0.000101169
0.00010055
9.99157e-05
9.92668e-05
9.86037e-05
9.79268e-05
9.72366e-05
9.65333e-05
9.58175e-05
9.50894e-05
9.43495e-05
9.35982e-05
9.2836e-05
9.20631e-05
9.12801e-05
9.04873e-05
8.96852e-05
8.88741e-05
8.80546e-05
8.72269e-05
8.63915e-05
8.55489e-05
8.46994e-05
8.38434e-05
8.29815e-05
8.21138e-05
8.1241e-05
8.03633e-05
7.94811e-05
7.8595e-05
7.77052e-05
7.68121e-05
7.59162e-05
7.50178e-05
7.41172e-05
7.32149e-05
7.23113e-05
7.14066e-05
7.05012e-05
6.95956e-05
6.869e-05
6.77848e-05
6.68802e-05
6.59768e-05
6.50746e-05
6.41742e-05
6.32757e-05
6.23795e-05
6.14859e-05
6.05952e-05
5.97076e-05
5.88234e-05
5.79429e-05
5.70664e-05
5.6194e-05
5.53261e-05
5.44629e-05
5.36046e-05
5.27515e-05
5.19037e-05
5.10614e-05
5.0225e-05
4.93945e-05
4.85701e-05
4.77521e-05
4.69406e-05
4.61357e-05
4.53377e-05
4.45466e-05
4.37627e-05
4.2986e-05
4.22166e-05
4.14548e-05
4.07006e-05
3.99542e-05
3.92156e-05
3.84849e-05
3.77622e-05
3.70476e-05
3.63412e-05
3.5643e-05
3.49532e-05
3.42717e-05
3.35987e-05
3.29341e-05
3.2278e-05
3.16305e-05
3.09915e-05
3.03611e-05
2.97394e-05
2.91262e-05
2.85218e-05
2.79259e-05
2.73387e-05
2.67602e-05
2.61902e-05
2.56289e-05
2.50762e-05
2.45321e-05
2.39965e-05
2.34695e-05
2.2951e-05
2.24409e-05
2.19392e-05
2.14459e-05
2.0961e-05
2.04844e-05
2.00159e-05
1.95557e-05
1.91037e-05
1.86597e-05
1.82237e-05
1.77957e-05
1.73756e-05
1.69634e-05
1.65589e-05
1.61622e-05
1.57731e-05
1.53917e-05
1.50178e-05
1.46513e-05
1.42924e-05
1.39407e-05
1.35965e-05
1.32595e-05
1.29297e-05
1.26071e-05
1.22917e-05
1.19834e-05
1.16822e-05
1.13881e-05
1.11012e-05
1.08213e-05
1.05486e-05
1.02831e-05
1.00248e-05
9.77383e-06
9.5303e-06
9.29434e-06
9.06609e-06
8.84576e-06
8.63358e-06
8.42983e-06
8.23482e-06
8.04894e-06
7.87263e-06
7.7064e-06
7.55083e-06
7.40657e-06
7.27437e-06
7.15508e-06
7.04961e-06
6.95899e-06
6.8843e-06
6.82669e-06
6.7873e-06
6.76719e-06
)
;
    }
}


// ************************************************************************* //
