/*--------------------------------*- C++ -*----------------------------------*\
  =========                 |
  \\      /  F ield         | OpenFOAM: The Open Source CFD Toolbox
   \\    /   O peration     | Website:  https://openfoam.org
    \\  /    A nd           | Version:  dev
     \\/     M anipulation  |
\*---------------------------------------------------------------------------*/
FoamFile
{
    format      ascii;
    class       volScalarField;
    location    "0.32";
    object      growth;
}
// * * * * * * * * * * * * * * * * * * * * * * * * * * * * * * * * * * * * * //

dimensions      [0 0 0 0 0 0 0];

internalField   uniform 0;

boundaryField
{
    frontAndBack
    {
        type            empty;
    }
    inlet
    {
        type            calculated;
        value           uniform 0;
    }
    outlet
    {
        type            calculated;
        value           uniform 0;
    }
    substrate
    {
        type            calculated;
        value           nonuniform List<scalar> 
400
(
0.723392
0.709436
0.699197
0.689838
0.680945
0.672481
0.664346
0.656453
0.648737
0.641155
0.633671
0.626261
0.618904
0.611584
0.60429
0.597014
0.589749
0.582491
0.575238
0.567987
0.560738
0.553492
0.546249
0.539011
0.531779
0.524555
0.517341
0.51014
0.502953
0.495784
0.488635
0.481509
0.474407
0.467333
0.460288
0.453276
0.446298
0.439357
0.432455
0.425595
0.418778
0.412007
0.405284
0.39861
0.391987
0.385417
0.378902
0.372444
0.366043
0.359702
0.353422
0.347204
0.341049
0.334958
0.328933
0.322975
0.317084
0.311261
0.305507
0.299823
0.294209
0.288666
0.283194
0.277795
0.272467
0.267212
0.262029
0.25692
0.251883
0.24692
0.242029
0.237212
0.232467
0.227796
0.223197
0.21867
0.214215
0.209833
0.205521
0.201281
0.197111
0.193012
0.188982
0.185022
0.18113
0.177306
0.17355
0.169861
0.166238
0.16268
0.159188
0.155759
0.152394
0.149092
0.145852
0.142674
0.139555
0.136497
0.133498
0.130557
0.127673
0.124846
0.122074
0.119358
0.116696
0.114088
0.111532
0.109027
0.106574
0.104171
0.101818
0.0995127
0.0972554
0.0950452
0.0928811
0.0907624
0.0886884
0.0866582
0.0846711
0.0827263
0.080823
0.0789605
0.0771381
0.075355
0.0736105
0.0719038
0.0702343
0.0686012
0.0670039
0.0654416
0.0639138
0.0624196
0.0609585
0.0595297
0.0581327
0.0567669
0.0554315
0.054126
0.0528498
0.0516022
0.0503827
0.0491907
0.0480257
0.046887
0.0457742
0.0446867
0.0436239
0.0425853
0.0415704
0.0405788
0.0396098
0.0386631
0.0377382
0.0368345
0.0359517
0.0350892
0.0342466
0.0334235
0.0326195
0.0318342
0.031067
0.0303177
0.0295859
0.0288711
0.0281729
0.0274911
0.0268252
0.0261748
0.0255397
0.0249195
0.0243139
0.0237224
0.0231449
0.022581
0.0220303
0.0214926
0.0209676
0.020455
0.0199545
0.0194658
0.0189887
0.0185229
0.0180682
0.0176242
0.0171907
0.0167676
0.0163545
0.0159513
0.0155576
0.0151733
0.0147982
0.014432
0.0140746
0.0137257
0.0133851
0.0130527
0.0127283
0.0124116
0.0121025
0.0118008
0.0115063
0.011219
0.0109385
0.0106648
0.0103976
0.0101369
0.00988246
0.00963415
0.00939184
0.00915537
0.00892461
0.00869944
0.0084797
0.00826529
0.00805606
0.00785191
0.00765271
0.00745834
0.0072687
0.00708366
0.00690312
0.00672698
0.00655513
0.00638746
0.00622389
0.00606431
0.00590863
0.00575676
0.0056086
0.00546407
0.00532309
0.00518556
0.00505141
0.00492056
0.00479293
0.00466844
0.00454702
0.00442859
0.00431309
0.00420044
0.00409058
0.00398344
0.00387896
0.00377707
0.00367771
0.00358082
0.00348634
0.00339422
0.00330439
0.00321681
0.00313142
0.00304817
0.002967
0.00288787
0.00281073
0.00273553
0.00266222
0.00259076
0.00252111
0.00245322
0.00238704
0.00232255
0.00225969
0.00219843
0.00213872
0.00208054
0.00202385
0.0019686
0.00191477
0.00186232
0.00181122
0.00176143
0.00171292
0.00166567
0.00161963
0.00157479
0.0015311
0.00148856
0.00144711
0.00140675
0.00136744
0.00132916
0.00129188
0.00125558
0.00122023
0.00118581
0.0011523
0.00111967
0.0010879
0.00105698
0.00102688
0.000997578
0.000969058
0.000941298
0.000914281
0.000887987
0.000862399
0.0008375
0.000813271
0.000789697
0.00076676
0.000744444
0.000722735
0.000701616
0.000681073
0.000661092
0.000641657
0.000622755
0.000604373
0.000586497
0.000569114
0.000552212
0.000535778
0.000519801
0.000504268
0.000489168
0.00047449
0.000460223
0.000446357
0.00043288
0.000419783
0.000407056
0.000394689
0.000382673
0.000370999
0.000359657
0.000348638
0.000337935
0.000327539
0.000317442
0.000307635
0.000298111
0.000288863
0.000279883
0.000271164
0.000262699
0.000254481
0.000246503
0.000238759
0.000231242
0.000223947
0.000216867
0.000209997
0.00020333
0.000196862
0.000190586
0.000184497
0.000178591
0.000172862
0.000167305
0.000161916
0.00015669
0.000151621
0.000146707
0.000141943
0.000137324
0.000132846
0.000128506
0.000124299
0.000120222
0.000116272
0.000112444
0.000108736
0.000105144
0.000101665
9.82953e-05
9.50328e-05
9.18744e-05
8.88173e-05
8.58589e-05
8.29966e-05
8.02281e-05
7.75511e-05
7.49635e-05
7.24634e-05
7.00488e-05
6.77182e-05
6.54699e-05
6.33028e-05
6.12156e-05
5.92075e-05
5.72779e-05
5.54263e-05
5.36527e-05
5.19572e-05
5.03405e-05
4.88035e-05
4.73477e-05
4.5975e-05
4.46879e-05
4.34894e-05
4.23833e-05
4.13739e-05
4.04663e-05
3.96666e-05
3.89813e-05
3.84178e-05
3.79838e-05
3.76875e-05
3.75363e-05
)
;
    }
    Wall
    {
        type            calculated;
        value           nonuniform List<scalar> 
400
(
0.723392
0.709436
0.699198
0.689839
0.680945
0.67248
0.664345
0.656451
0.648735
0.641152
0.633669
0.626258
0.618901
0.611581
0.604288
0.597012
0.589747
0.582489
0.575236
0.567985
0.560737
0.553491
0.546248
0.53901
0.531778
0.524554
0.51734
0.510139
0.502953
0.495784
0.488636
0.481509
0.474407
0.467333
0.460289
0.453276
0.446299
0.439358
0.432456
0.425596
0.41878
0.412009
0.405285
0.398611
0.391988
0.385419
0.378904
0.372445
0.366045
0.359704
0.353424
0.347205
0.341051
0.33496
0.328935
0.322977
0.317085
0.311263
0.305509
0.299825
0.294211
0.288668
0.283196
0.277797
0.272469
0.267214
0.262031
0.256922
0.251885
0.246922
0.242031
0.237214
0.232469
0.227798
0.223199
0.218672
0.214217
0.209835
0.205523
0.201283
0.197113
0.193014
0.188984
0.185024
0.181132
0.177308
0.173552
0.169863
0.166239
0.162682
0.159189
0.155761
0.152396
0.149094
0.145854
0.142675
0.139557
0.136498
0.133499
0.130558
0.127674
0.124847
0.122076
0.119359
0.116697
0.114089
0.111533
0.109029
0.106575
0.104172
0.101819
0.0995138
0.0972565
0.0950463
0.0928822
0.0907635
0.0886894
0.0866592
0.0846721
0.0827272
0.0808239
0.0789614
0.077139
0.0753559
0.0736113
0.0719047
0.0702351
0.068602
0.0670047
0.0654424
0.0639145
0.0624203
0.0609592
0.0595304
0.0581334
0.0567676
0.0554322
0.0541267
0.0528504
0.0516028
0.0503833
0.0491914
0.0480263
0.0468876
0.0457748
0.0446872
0.0436244
0.0425858
0.041571
0.0405793
0.0396104
0.0386637
0.0377387
0.036835
0.0359521
0.0350896
0.0342471
0.033424
0.03262
0.0318346
0.0310675
0.0303181
0.0295863
0.0288715
0.0281733
0.0274915
0.0268255
0.0261752
0.0255401
0.0249199
0.0243142
0.0237228
0.0231452
0.0225813
0.0220306
0.0214929
0.0209679
0.0204553
0.0199548
0.0194661
0.018989
0.0185232
0.0180684
0.0176244
0.017191
0.0167678
0.0163548
0.0159515
0.0155578
0.0151735
0.0147984
0.0144322
0.0140748
0.0137259
0.0133853
0.0130529
0.0127285
0.0124118
0.0121027
0.011801
0.0115065
0.0112191
0.0109387
0.0106649
0.0103978
0.0101371
0.00988261
0.0096343
0.00939199
0.00915552
0.00892476
0.00869958
0.00847984
0.00826542
0.0080562
0.00785204
0.00765284
0.00745847
0.00726882
0.00708378
0.00690324
0.0067271
0.00655524
0.00638758
0.006224
0.00606442
0.00590874
0.00575686
0.0056087
0.00546417
0.00532318
0.00518566
0.00505151
0.00492065
0.00479302
0.00466853
0.0045471
0.00442868
0.00431317
0.00420052
0.00409066
0.00398352
0.00387903
0.00377714
0.00367778
0.00358089
0.00348641
0.00339428
0.00330446
0.00321688
0.00313148
0.00304823
0.00296706
0.00288793
0.00281079
0.00273558
0.00266228
0.00259082
0.00252116
0.00245327
0.00238709
0.0023226
0.00225974
0.00219847
0.00213877
0.00208059
0.00202389
0.00196865
0.00191482
0.00186236
0.00181126
0.00176147
0.00171296
0.0016657
0.00161967
0.00157482
0.00153114
0.00148859
0.00144715
0.00140679
0.00136747
0.00132919
0.00129191
0.00125561
0.00122026
0.00118584
0.00115232
0.0011197
0.00108793
0.00105701
0.0010269
0.000997602
0.000969081
0.000941321
0.000914303
0.000888009
0.000862421
0.000837521
0.000813291
0.000789716
0.000766779
0.000744463
0.000722753
0.000701634
0.000681091
0.000661109
0.000641673
0.000622771
0.000604389
0.000586512
0.000569129
0.000552226
0.000535792
0.000519814
0.000504281
0.000489181
0.000474503
0.000460236
0.000446369
0.000432892
0.000419795
0.000407067
0.0003947
0.000382684
0.000371009
0.000359667
0.000348648
0.000337945
0.000327548
0.000317451
0.000307644
0.00029812
0.000288872
0.000279891
0.000271172
0.000262706
0.000254488
0.00024651
0.000238766
0.000231249
0.000223954
0.000216874
0.000210003
0.000203336
0.000196868
0.000190592
0.000184503
0.000178597
0.000172867
0.00016731
0.000161921
0.000156694
0.000151626
0.000146712
0.000141947
0.000137328
0.00013285
0.00012851
0.000124303
0.000120226
0.000116275
0.000112448
0.000108739
0.000105147
0.000101668
9.82984e-05
9.50358e-05
9.18773e-05
8.88201e-05
8.58616e-05
8.29992e-05
8.02306e-05
7.75536e-05
7.49659e-05
7.24657e-05
7.0051e-05
6.77203e-05
6.5472e-05
6.33048e-05
6.12176e-05
5.92094e-05
5.72797e-05
5.54281e-05
5.36544e-05
5.19588e-05
5.03421e-05
4.88051e-05
4.73493e-05
4.59765e-05
4.46894e-05
4.34909e-05
4.23847e-05
4.13753e-05
4.04677e-05
3.9668e-05
3.89827e-05
3.84191e-05
3.79851e-05
3.76887e-05
3.75374e-05
)
;
    }
}


// ************************************************************************* //
