/*--------------------------------*- C++ -*----------------------------------*\
  =========                 |
  \\      /  F ield         | OpenFOAM: The Open Source CFD Toolbox
   \\    /   O peration     | Website:  https://openfoam.org
    \\  /    A nd           | Version:  dev
     \\/     M anipulation  |
\*---------------------------------------------------------------------------*/
FoamFile
{
    format      ascii;
    class       volScalarField;
    location    "0.32";
    object      N1;
}
// * * * * * * * * * * * * * * * * * * * * * * * * * * * * * * * * * * * * * //

dimensions      [0 0 0 0 0 0 0];

internalField   nonuniform List<scalar> 
8000
(
6.93347e-08
2.20876e-07
3.87606e-07
5.68796e-07
7.64528e-07
9.75444e-07
1.20216e-06
1.44532e-06
1.70565e-06
1.98394e-06
2.281e-06
2.59772e-06
2.93497e-06
3.29369e-06
3.67478e-06
4.0792e-06
4.50789e-06
4.96179e-06
5.44188e-06
5.9491e-06
6.48442e-06
7.0488e-06
7.64323e-06
8.26866e-06
8.92609e-06
9.61648e-06
1.03408e-05
1.11001e-05
1.18954e-05
1.27275e-05
1.35977e-05
1.45067e-05
1.54558e-05
1.64458e-05
1.74778e-05
1.85528e-05
1.96719e-05
2.0836e-05
2.20462e-05
2.33034e-05
2.46089e-05
2.59634e-05
2.73682e-05
2.88241e-05
3.03323e-05
3.18936e-05
3.35093e-05
3.51801e-05
3.69073e-05
3.86917e-05
4.05343e-05
4.24362e-05
4.43982e-05
4.64215e-05
4.85069e-05
5.06554e-05
5.28679e-05
5.51453e-05
5.74887e-05
5.98988e-05
6.23766e-05
6.4923e-05
6.75387e-05
7.02247e-05
7.29817e-05
7.58107e-05
7.87123e-05
8.16873e-05
8.47365e-05
8.78606e-05
9.10603e-05
9.43362e-05
9.76891e-05
0.000101119
0.000104628
0.000108215
0.000111882
0.000115628
0.000119454
0.000123361
0.000127349
0.000131418
0.000135569
0.000139802
0.000144117
0.000148515
0.000152995
0.000157558
0.000162204
0.000166932
0.000171743
0.000176637
0.000181614
0.000186673
0.000191814
0.000197037
0.000202342
0.000207728
0.000213194
0.000218741
0.000224368
0.000230073
0.000235858
0.000241719
0.000247658
0.000253673
0.000259763
0.000265927
0.000272164
0.000278473
0.000284852
0.000291302
0.000297819
0.000304404
0.000311053
0.000317767
0.000324543
0.00033138
0.000338275
0.000345228
0.000352236
0.000359297
0.00036641
0.000373573
0.000380782
0.000388037
0.000395334
0.000402672
0.000410048
0.00041746
0.000424906
0.000432381
0.000439885
0.000447415
0.000454967
0.000462539
0.000470128
0.000477731
0.000485346
0.000492969
0.000500597
0.000508227
0.000515857
0.000523482
0.0005311
0.000538708
0.000546301
0.000553878
0.000561434
0.000568966
0.000576471
0.000583946
0.000591386
0.000598789
0.000606151
0.000613468
0.000620738
0.000627956
0.00063512
0.000642225
0.000649268
0.000656245
0.000663154
0.000669991
0.000676752
0.000683433
0.000690032
0.000696545
0.000702969
0.0007093
0.000715535
0.000721671
0.000727704
0.000733632
0.000739451
0.000745158
0.00075075
0.000756224
0.000761577
0.000766806
0.000771909
0.000776883
0.000781725
0.000786432
0.000791002
0.000795433
0.000799721
0.000803866
0.000807864
0.000811713
0.000815412
0.000818958
0.000822349
0.000825584
0.000828662
0.000831579
0.000834336
0.00083693
0.000839361
0.000841626
0.000843726
0.000845658
0.000847422
0.000849018
0.000850444
0.0008517
0.000852785
0.0008537
0.000854444
0.000855016
0.000855417
0.000855647
0.000855706
0.000855595
0.000855313
0.00085486
0.000854238
0.000853446
0.000852486
0.000851359
0.000850066
0.000848607
0.000846985
0.000845199
0.000843253
0.000841146
0.000838881
0.000836459
0.000833883
0.000831153
0.000828271
0.00082524
0.000822062
0.000818739
0.000815272
0.000811665
0.000807919
0.000804037
0.000800021
0.000795875
0.0007916
0.000787199
0.000782675
0.00077803
0.000773268
0.00076839
0.000763401
0.000758303
0.000753099
0.000747792
0.000742385
0.00073688
0.000731282
0.000725593
0.000719816
0.000713955
0.000708012
0.000701991
0.000695895
0.000689727
0.00068349
0.000677188
0.000670823
0.000664399
0.00065792
0.000651387
0.000644805
0.000638176
0.000631504
0.000624792
0.000618043
0.000611259
0.000604444
0.000597602
0.000590734
0.000583844
0.000576935
0.000570009
0.000563071
0.000556121
0.000549164
0.000542202
0.000535237
0.000528273
0.000521311
0.000514355
0.000507407
0.000500469
0.000493544
0.000486635
0.000479742
0.00047287
0.00046602
0.000459194
0.000452394
0.000445623
0.000438881
0.000432173
0.000425498
0.000418859
0.000412259
0.000405697
0.000399177
0.0003927
0.000386267
0.00037988
0.00037354
0.000367249
0.000361008
0.000354818
0.000348681
0.000342597
0.000336568
0.000330594
0.000324678
0.000318819
0.000313019
0.000307278
0.000301597
0.000295978
0.00029042
0.000284924
0.000279492
0.000274122
0.000268817
0.000263576
0.000258399
0.000253288
0.000248242
0.000243262
0.000238348
0.0002335
0.000228718
0.000224003
0.000219354
0.000214772
0.000210256
0.000205806
0.000201423
0.000197106
0.000192855
0.000188671
0.000184552
0.000180498
0.00017651
0.000172588
0.000168729
0.000164936
0.000161206
0.00015754
0.000153938
0.000150399
0.000146922
0.000143507
0.000140154
0.000136863
0.000133632
0.000130461
0.000127351
0.0001243
0.000121307
0.000118374
0.000115498
0.00011268
0.000109919
0.000107215
0.000104567
0.000101975
9.94391e-05
9.69582e-05
9.45324e-05
9.21614e-05
8.98451e-05
8.75834e-05
8.53764e-05
8.32241e-05
8.11267e-05
7.90846e-05
7.70982e-05
7.51682e-05
7.32953e-05
7.14805e-05
6.97252e-05
6.80307e-05
6.63988e-05
6.48318e-05
6.3332e-05
6.19025e-05
6.05465e-05
5.9268e-05
5.80715e-05
5.6962e-05
5.59453e-05
5.50279e-05
5.42167e-05
5.35198e-05
5.29454e-05
5.25023e-05
5.21993e-05
5.20446e-05
6.79226e-08
2.17732e-07
3.8306e-07
5.63637e-07
7.59409e-07
9.70789e-07
1.19831e-06
1.44259e-06
1.70435e-06
1.98437e-06
2.28348e-06
2.60258e-06
2.94257e-06
3.30438e-06
3.68898e-06
4.09732e-06
4.53037e-06
4.98912e-06
5.47454e-06
5.98763e-06
6.52938e-06
7.10079e-06
7.70286e-06
8.33659e-06
9.003e-06
9.70311e-06
1.04379e-05
1.12085e-05
1.20158e-05
1.2861e-05
1.3745e-05
1.46689e-05
1.56338e-05
1.66406e-05
1.76905e-05
1.87846e-05
1.99238e-05
2.11093e-05
2.23421e-05
2.36233e-05
2.4954e-05
2.63352e-05
2.77679e-05
2.92533e-05
3.07925e-05
3.23864e-05
3.40361e-05
3.57428e-05
3.75073e-05
3.93309e-05
4.12144e-05
4.3159e-05
4.51657e-05
4.72355e-05
4.93693e-05
5.15682e-05
5.38332e-05
5.61652e-05
5.85652e-05
6.10341e-05
6.35729e-05
6.61825e-05
6.88637e-05
7.16175e-05
7.44447e-05
7.73462e-05
8.03228e-05
8.33753e-05
8.65044e-05
8.97109e-05
9.29956e-05
9.63592e-05
9.98023e-05
0.000103326
0.00010693
0.000110615
0.000114383
0.000118233
0.000122165
0.000126182
0.000130282
0.000134466
0.000138735
0.000143089
0.000147528
0.000152052
0.000156662
0.000161357
0.000166139
0.000171005
0.000175958
0.000180996
0.00018612
0.00019133
0.000196624
0.000202003
0.000207467
0.000213015
0.000218647
0.000224362
0.000230159
0.000236039
0.000242
0.000248041
0.000254162
0.000260362
0.00026664
0.000272995
0.000279426
0.000285931
0.00029251
0.000299161
0.000305883
0.000312674
0.000319533
0.000326458
0.000333448
0.000340502
0.000347616
0.00035479
0.000362021
0.000369308
0.000376649
0.000384041
0.000391482
0.00039897
0.000406502
0.000414077
0.000421692
0.000429344
0.000437031
0.00044475
0.000452498
0.000460273
0.000468072
0.000475892
0.00048373
0.000491583
0.000499449
0.000507323
0.000515203
0.000523085
0.000530968
0.000538846
0.000546717
0.000554578
0.000562425
0.000570254
0.000578063
0.000585848
0.000593605
0.000601331
0.000609022
0.000616675
0.000624286
0.000631851
0.000639368
0.000646831
0.000654239
0.000661586
0.00066887
0.000676087
0.000683233
0.000690305
0.000697299
0.000704212
0.000711039
0.000717778
0.000724426
0.000730978
0.000737431
0.000743782
0.000750027
0.000756164
0.000762188
0.000768098
0.000773889
0.000779558
0.000785103
0.000790521
0.000795808
0.000800962
0.00080598
0.000810859
0.000815597
0.000820191
0.000824638
0.000828937
0.000833085
0.000837079
0.000840918
0.0008446
0.000848122
0.000851484
0.000854682
0.000857715
0.000860582
0.000863282
0.000865813
0.000868173
0.000870362
0.000872378
0.000874222
0.00087589
0.000877384
0.000878703
0.000879845
0.000880811
0.0008816
0.000882213
0.000882648
0.000882906
0.000882988
0.000882895
0.000882626
0.000882179
0.000881558
0.000880761
0.000879791
0.000878648
0.000877333
0.000875847
0.000874192
0.000872369
0.000870379
0.000868224
0.000865905
0.000863423
0.000860782
0.000857982
0.000855026
0.000851915
0.000848652
0.000845238
0.000841677
0.00083797
0.00083412
0.000830129
0.000825999
0.000821735
0.000817337
0.000812809
0.000808153
0.000803373
0.000798471
0.00079345
0.000788314
0.000783064
0.000777705
0.000772238
0.000766669
0.000760998
0.000755231
0.000749369
0.000743417
0.000737377
0.000731252
0.000725047
0.000718763
0.000712405
0.000705976
0.000699479
0.000692917
0.000686293
0.000679612
0.000672876
0.000666088
0.000659252
0.00065237
0.000645447
0.000638485
0.000631488
0.000624458
0.000617399
0.000610314
0.000603205
0.000596077
0.000588931
0.000581772
0.000574601
0.000567421
0.000560237
0.000553049
0.000545861
0.000538677
0.000531497
0.000524326
0.000517164
0.000510016
0.000502884
0.000495769
0.000488675
0.000481603
0.000474556
0.000467535
0.000460544
0.000453584
0.000446657
0.000439765
0.00043291
0.000426094
0.000419319
0.000412586
0.000405897
0.000399254
0.000392657
0.00038611
0.000379612
0.000373166
0.000366773
0.000360434
0.00035415
0.000347922
0.000341752
0.00033564
0.000329588
0.000323596
0.000317666
0.000311798
0.000305992
0.00030025
0.000294572
0.000288959
0.000283412
0.00027793
0.000272515
0.000267167
0.000261885
0.000256672
0.000251526
0.000246448
0.000241438
0.000236497
0.000231624
0.00022682
0.000222084
0.000217417
0.000212818
0.000208289
0.000203827
0.000199434
0.000195109
0.000190852
0.000186662
0.00018254
0.000178485
0.000174497
0.000170576
0.000166721
0.000162931
0.000159208
0.000155549
0.000151955
0.000148425
0.000144958
0.000141556
0.000138215
0.000134938
0.000131722
0.000128567
0.000125474
0.00012244
0.000119467
0.000116553
0.000113699
0.000110902
0.000108165
0.000105484
0.000102862
0.000100296
9.77873e-05
9.53351e-05
9.29395e-05
9.06002e-05
8.83174e-05
8.6091e-05
8.39213e-05
8.18086e-05
7.97533e-05
7.77562e-05
7.58179e-05
7.39396e-05
7.21224e-05
7.0368e-05
6.8678e-05
6.70548e-05
6.55008e-05
6.4019e-05
6.26129e-05
6.12865e-05
6.00443e-05
5.88916e-05
5.78343e-05
5.68792e-05
5.60335e-05
5.53055e-05
5.47041e-05
5.42387e-05
5.39191e-05
5.37549e-05
6.66532e-08
2.13825e-07
3.76094e-07
5.53904e-07
7.4748e-07
9.57156e-07
1.18339e-06
1.42677e-06
1.68795e-06
1.9677e-06
2.26686e-06
2.58631e-06
2.92696e-06
3.28976e-06
3.67566e-06
4.08565e-06
4.52072e-06
4.98187e-06
5.47009e-06
5.98639e-06
6.5318e-06
7.10734e-06
7.71402e-06
8.3529e-06
9.025e-06
9.73137e-06
1.04731e-05
1.12512e-05
1.20667e-05
1.29207e-05
1.38144e-05
1.47487e-05
1.57247e-05
1.67437e-05
1.78065e-05
1.89144e-05
2.00685e-05
2.12698e-05
2.25194e-05
2.38185e-05
2.51682e-05
2.65696e-05
2.80237e-05
2.95317e-05
3.10947e-05
3.27137e-05
3.439e-05
3.61245e-05
3.79184e-05
3.97728e-05
4.16887e-05
4.36671e-05
4.57092e-05
4.78161e-05
4.99886e-05
5.2228e-05
5.45352e-05
5.69112e-05
5.9357e-05
6.18736e-05
6.44619e-05
6.7123e-05
6.98577e-05
7.2667e-05
7.55518e-05
7.85129e-05
8.15512e-05
8.46675e-05
8.78627e-05
9.11376e-05
9.44928e-05
9.79292e-05
0.000101447
0.000105048
0.000108732
0.0001125
0.000116352
0.000120289
0.000124311
0.00012842
0.000132614
0.000136896
0.000141264
0.00014572
0.000150264
0.000154896
0.000159615
0.000164423
0.00016932
0.000174305
0.000179378
0.00018454
0.000189789
0.000195127
0.000200553
0.000206066
0.000211667
0.000217354
0.000223128
0.000228988
0.000234933
0.000240962
0.000247076
0.000253272
0.000259552
0.000265912
0.000272353
0.000278874
0.000285473
0.000292149
0.000298901
0.000305727
0.000312627
0.000319599
0.000326641
0.000333752
0.000340929
0.000348172
0.000355479
0.000362847
0.000370274
0.00037776
0.0003853
0.000392894
0.00040054
0.000408234
0.000415974
0.000423759
0.000431585
0.00043945
0.000447351
0.000455286
0.000463252
0.000471245
0.000479264
0.000487305
0.000495365
0.000503441
0.00051153
0.000519629
0.000527735
0.000535844
0.000543953
0.000552059
0.000560158
0.000568246
0.000576321
0.000584379
0.000592417
0.00060043
0.000608415
0.000616369
0.000624288
0.000632167
0.000640005
0.000647796
0.000655537
0.000663225
0.000670856
0.000678425
0.00068593
0.000693366
0.00070073
0.000708019
0.000715228
0.000722353
0.000729392
0.000736341
0.000743196
0.000749953
0.000756609
0.00076316
0.000769603
0.000775935
0.000782153
0.000788252
0.00079423
0.000800084
0.00080581
0.000811405
0.000816867
0.000822192
0.000827378
0.000832421
0.00083732
0.000842071
0.000846671
0.000851119
0.000855413
0.000859548
0.000863525
0.00086734
0.000870991
0.000874476
0.000877795
0.000880944
0.000883922
0.000886728
0.000889361
0.000891819
0.0008941
0.000896205
0.000898131
0.000899878
0.000901446
0.000902832
0.000904038
0.000905063
0.000905906
0.000906566
0.000907045
0.000907342
0.000907457
0.000907393
0.000907148
0.000906719
0.000906111
0.000905322
0.000904355
0.00090321
0.000901888
0.00090039
0.000898718
0.000896873
0.000894856
0.000892669
0.000890313
0.00088779
0.000885102
0.000882251
0.000879238
0.000876067
0.000872738
0.000869255
0.000865619
0.000861833
0.000857899
0.00085382
0.000849599
0.000845237
0.000840739
0.000836106
0.000831342
0.000826449
0.00082143
0.000816289
0.000811028
0.000805651
0.00080016
0.000794559
0.000788851
0.000783039
0.000777126
0.000771117
0.000765013
0.000758819
0.000752537
0.000746172
0.000739726
0.000733203
0.000726606
0.000719938
0.000713204
0.000706406
0.000699547
0.000692632
0.000685664
0.000678645
0.000671579
0.000664469
0.00065732
0.000650133
0.000642912
0.000635661
0.000628383
0.00062108
0.000613756
0.000606414
0.000599057
0.000591688
0.00058431
0.000576926
0.000569539
0.000562151
0.000554766
0.000547385
0.000540013
0.000532651
0.000525301
0.000517968
0.000510652
0.000503357
0.000496084
0.000488837
0.000481617
0.000474427
0.000467268
0.000460143
0.000453054
0.000446002
0.00043899
0.00043202
0.000425093
0.000418211
0.000411375
0.000404588
0.000397851
0.000391164
0.000384531
0.000377951
0.000371427
0.00036496
0.00035855
0.000352199
0.000345908
0.000339679
0.000333511
0.000327406
0.000321364
0.000315387
0.000309476
0.00030363
0.000297851
0.000292139
0.000286495
0.000280918
0.000275411
0.000269972
0.000264603
0.000259303
0.000254074
0.000248914
0.000243825
0.000238806
0.000233857
0.000228979
0.000224172
0.000219435
0.000214768
0.000210172
0.000205646
0.00020119
0.000196804
0.000192488
0.000188241
0.000184063
0.000179954
0.000175913
0.000171941
0.000168036
0.000164198
0.000160428
0.000156724
0.000153086
0.000149514
0.000146006
0.000142564
0.000139185
0.000135871
0.000132619
0.00012943
0.000126303
0.000123238
0.000120234
0.000117291
0.000114408
0.000111585
0.000108822
0.000106117
0.000103472
0.000100885
9.83556e-05
9.58848e-05
9.34719e-05
9.1117e-05
8.88201e-05
8.65815e-05
8.44014e-05
8.22803e-05
8.02188e-05
7.82177e-05
7.62781e-05
7.44012e-05
7.25884e-05
7.08418e-05
6.91634e-05
6.75558e-05
6.6022e-05
6.45656e-05
6.31906e-05
6.19017e-05
6.07042e-05
5.96042e-05
5.86087e-05
5.77253e-05
5.69628e-05
5.63306e-05
5.58393e-05
5.54999e-05
5.53242e-05
6.53913e-08
2.09733e-07
3.68636e-07
5.42896e-07
7.33066e-07
9.39615e-07
1.16305e-06
1.40395e-06
1.66299e-06
1.94091e-06
2.23855e-06
2.55677e-06
2.89649e-06
3.25864e-06
3.6442e-06
4.05413e-06
4.48945e-06
4.95115e-06
5.44025e-06
5.95777e-06
6.50474e-06
7.08221e-06
7.69122e-06
8.33282e-06
9.00808e-06
9.71807e-06
1.04639e-05
1.12465e-05
1.20672e-05
1.29269e-05
1.38269e-05
1.47681e-05
1.57517e-05
1.67789e-05
1.78507e-05
1.89683e-05
2.01328e-05
2.13454e-05
2.26072e-05
2.39193e-05
2.52829e-05
2.66991e-05
2.81691e-05
2.9694e-05
3.12749e-05
3.2913e-05
3.46094e-05
3.63652e-05
3.81817e-05
4.00597e-05
4.20006e-05
4.40054e-05
4.60752e-05
4.8211e-05
5.04141e-05
5.26853e-05
5.50258e-05
5.74367e-05
5.9919e-05
6.24736e-05
6.51016e-05
6.7804e-05
7.05817e-05
7.34357e-05
7.63669e-05
7.93763e-05
8.24647e-05
8.5633e-05
8.8882e-05
9.22125e-05
9.56254e-05
9.91214e-05
0.000102701
0.000106366
0.000110115
0.000113951
0.000117873
0.000121882
0.000125978
0.000130163
0.000134436
0.000138798
0.00014325
0.000147791
0.000152422
0.000157143
0.000161955
0.000166858
0.000171851
0.000176935
0.000182109
0.000187375
0.000192731
0.000198177
0.000203714
0.00020934
0.000215056
0.000220862
0.000226756
0.000232739
0.000238809
0.000244966
0.00025121
0.000257539
0.000263952
0.00027045
0.000277031
0.000283693
0.000290436
0.000297258
0.000304159
0.000311136
0.000318189
0.000325316
0.000332516
0.000339786
0.000347125
0.000354532
0.000362004
0.00036954
0.000377137
0.000384794
0.000392509
0.000400279
0.000408101
0.000415974
0.000423896
0.000431863
0.000439873
0.000447923
0.000456012
0.000464135
0.000472291
0.000480476
0.000488687
0.000496922
0.000505177
0.000513449
0.000521735
0.000530032
0.000538336
0.000546645
0.000554954
0.00056326
0.000571561
0.000579851
0.000588129
0.000596389
0.000604629
0.000612845
0.000621033
0.00062919
0.000637311
0.000645394
0.000653433
0.000661426
0.000669369
0.000677257
0.000685088
0.000692857
0.00070056
0.000708194
0.000715754
0.000723238
0.000730641
0.000737959
0.000745189
0.000752328
0.00075937
0.000766314
0.000773154
0.000779888
0.000786512
0.000793023
0.000799417
0.00080569
0.00081184
0.000817863
0.000823756
0.000829516
0.000835139
0.000840623
0.000845964
0.00085116
0.000856209
0.000861106
0.00086585
0.000870439
0.000874869
0.000879138
0.000883244
0.000887185
0.000890959
0.000894564
0.000897997
0.000901258
0.000904344
0.000907254
0.000909986
0.000912539
0.000914913
0.000917104
0.000919114
0.00092094
0.000922582
0.000924039
0.000925311
0.000926397
0.000927297
0.000928011
0.000928538
0.000928879
0.000929034
0.000929003
0.000928791
0.000928389
0.000927802
0.00092703
0.000926076
0.000924938
0.00092362
0.000922121
0.000920444
0.000918589
0.000916557
0.000914351
0.000911972
0.000909421
0.000906702
0.000903814
0.000900761
0.000897545
0.000894167
0.00089063
0.000886937
0.00088309
0.00087909
0.000874942
0.000870647
0.000866208
0.000861629
0.000856911
0.000852058
0.000847073
0.000841958
0.000836717
0.000831354
0.00082587
0.000820269
0.000814555
0.000808731
0.0008028
0.000796765
0.00079063
0.000784398
0.000778073
0.000771657
0.000765156
0.000758571
0.000751906
0.000745165
0.000738351
0.000731469
0.00072452
0.000717509
0.000710439
0.000703314
0.000696136
0.00068891
0.000681639
0.000674326
0.000666974
0.000659587
0.000652168
0.000644721
0.000637248
0.000629753
0.000622239
0.000614708
0.000607166
0.000599613
0.000592053
0.00058449
0.000576925
0.000569363
0.000561805
0.000554255
0.000546715
0.000539187
0.000531675
0.000524181
0.000516708
0.000509257
0.000501832
0.000494434
0.000487066
0.000479731
0.000472429
0.000465164
0.000457937
0.00045075
0.000443605
0.000436505
0.00042945
0.000422442
0.000415484
0.000408576
0.000401721
0.000394919
0.000388172
0.000381482
0.00037485
0.000368276
0.000361763
0.00035531
0.00034892
0.000342594
0.000336331
0.000330134
0.000324002
0.000317937
0.00031194
0.000306011
0.00030015
0.000294358
0.000288636
0.000282985
0.000277403
0.000271893
0.000266454
0.000261087
0.000255791
0.000250567
0.000245416
0.000240336
0.000235329
0.000230393
0.000225531
0.00022074
0.000216021
0.000211374
0.000206799
0.000202295
0.000197863
0.000193502
0.000189212
0.000184992
0.000180842
0.000176763
0.000172752
0.000168811
0.000164938
0.000161134
0.000157397
0.000153727
0.000150124
0.000146588
0.000143117
0.000139712
0.000136371
0.000133094
0.000129882
0.000126732
0.000123645
0.000120621
0.000117658
0.000114757
0.000111917
0.000109137
0.000106418
0.000103758
0.000101158
9.86179e-05
9.61369e-05
9.37153e-05
9.1353e-05
8.90504e-05
8.68076e-05
8.46251e-05
8.25036e-05
8.04438e-05
7.84467e-05
7.65136e-05
7.4646e-05
7.28457e-05
7.1115e-05
6.94562e-05
6.78726e-05
6.63677e-05
6.49455e-05
6.36108e-05
6.23691e-05
6.12265e-05
6.01904e-05
5.92686e-05
5.84706e-05
5.78064e-05
5.72877e-05
5.69273e-05
5.67393e-05
6.42002e-08
2.05851e-07
3.61573e-07
5.32246e-07
7.18649e-07
9.21438e-07
1.14125e-06
1.37874e-06
1.63463e-06
1.90968e-06
2.20473e-06
2.52065e-06
2.85833e-06
3.21873e-06
3.60279e-06
4.01149e-06
4.44583e-06
4.90681e-06
5.39546e-06
5.9128e-06
6.45986e-06
7.03771e-06
7.6474e-06
8.29e-06
8.96659e-06
9.67826e-06
1.04261e-05
1.12112e-05
1.20348e-05
1.28978e-05
1.38015e-05
1.47469e-05
1.57353e-05
1.67678e-05
1.78455e-05
1.89696e-05
2.01412e-05
2.13615e-05
2.26317e-05
2.3953e-05
2.53265e-05
2.67533e-05
2.82347e-05
2.97719e-05
3.1366e-05
3.30181e-05
3.47294e-05
3.65012e-05
3.83345e-05
4.02305e-05
4.21903e-05
4.42151e-05
4.6306e-05
4.84642e-05
5.06906e-05
5.29865e-05
5.5353e-05
5.7791e-05
6.03017e-05
6.28861e-05
6.55453e-05
6.82802e-05
7.10918e-05
7.39812e-05
7.69493e-05
7.9997e-05
8.31253e-05
8.6335e-05
8.96271e-05
9.30023e-05
9.64615e-05
0.000100005
0.000103635
0.000107351
0.000111153
0.000115044
0.000119022
0.00012309
0.000127247
0.000131493
0.000135831
0.000140259
0.000144778
0.000149389
0.000154092
0.000158887
0.000163775
0.000168755
0.000173828
0.000178993
0.000184252
0.000189603
0.000195046
0.000200583
0.000206211
0.000211932
0.000217744
0.000223648
0.000229642
0.000235727
0.000241902
0.000248166
0.000254518
0.000260958
0.000267484
0.000274097
0.000280794
0.000287575
0.000294439
0.000301384
0.00030841
0.000315515
0.000322696
0.000329954
0.000337287
0.000344692
0.000352168
0.000359713
0.000367326
0.000375004
0.000382746
0.000390548
0.00039841
0.000406329
0.000414303
0.000422329
0.000430404
0.000438527
0.000446694
0.000454903
0.000463151
0.000471436
0.000479755
0.000488103
0.00049648
0.000504881
0.000513303
0.000521744
0.0005302
0.000538667
0.000547142
0.000555623
0.000564105
0.000572585
0.000581059
0.000589524
0.000597977
0.000606413
0.000614829
0.000623221
0.000631585
0.000639918
0.000648216
0.000656475
0.000664691
0.00067286
0.000680979
0.000689043
0.000697048
0.000704992
0.000712869
0.000720676
0.000728409
0.000736064
0.000743638
0.000751126
0.000758525
0.000765831
0.00077304
0.000780149
0.000787153
0.000794049
0.000800834
0.000807503
0.000814054
0.000820483
0.000826786
0.000832961
0.000839003
0.00084491
0.000850678
0.000856304
0.000861786
0.00086712
0.000872304
0.000877335
0.000882209
0.000886925
0.000891479
0.00089587
0.000900095
0.000904152
0.000908039
0.000911753
0.000915293
0.000918657
0.000921843
0.00092485
0.000927675
0.000930319
0.000932778
0.000935053
0.000937142
0.000939043
0.000940757
0.000942283
0.00094362
0.000944767
0.000945724
0.000946491
0.000947068
0.000947454
0.00094765
0.000947656
0.00094748
0.000947108
0.000946547
0.000945798
0.000944862
0.000943739
0.000942431
0.000940939
0.000939264
0.000937407
0.000935371
0.000933156
0.000930764
0.000928196
0.000925456
0.000922544
0.000919463
0.000916214
0.000912801
0.000909225
0.000905488
0.000901594
0.000897544
0.000893342
0.00088899
0.00088449
0.000879846
0.000875061
0.000870137
0.000865077
0.000859885
0.000854564
0.000849116
0.000843545
0.000837855
0.000832048
0.000826128
0.000820098
0.000813962
0.000807723
0.000801384
0.00079495
0.000788423
0.000781806
0.000775105
0.000768321
0.000761459
0.000754523
0.000747514
0.000740438
0.000733298
0.000726097
0.000718839
0.000711527
0.000704164
0.000696755
0.000689302
0.00068181
0.000674281
0.000666718
0.000659126
0.000651508
0.000643866
0.000636204
0.000628525
0.000620832
0.000613129
0.000605418
0.000597703
0.000589986
0.000582271
0.000574559
0.000566855
0.000559161
0.000551479
0.000543813
0.000536165
0.000528536
0.000520931
0.000513351
0.000505799
0.000498277
0.000490787
0.000483331
0.000475913
0.000468532
0.000461193
0.000453896
0.000446644
0.000439438
0.00043228
0.000425172
0.000418115
0.000411112
0.000404162
0.000397269
0.000390433
0.000383656
0.000376939
0.000370282
0.000363688
0.000357158
0.000350691
0.00034429
0.000337955
0.000331688
0.000325488
0.000319357
0.000313295
0.000307303
0.000301381
0.000295531
0.000289752
0.000284045
0.00027841
0.000272848
0.000267359
0.000261942
0.0002566
0.00025133
0.000246135
0.000241013
0.000235964
0.00023099
0.000226089
0.000221261
0.000216507
0.000211826
0.000207218
0.000202683
0.000198221
0.000193831
0.000189512
0.000185266
0.000181091
0.000176986
0.000172952
0.000168989
0.000165095
0.00016127
0.000157513
0.000153825
0.000150205
0.000146652
0.000143165
0.000139745
0.00013639
0.000133101
0.000129876
0.000126715
0.000123618
0.000120584
0.000117613
0.000114704
0.000111857
0.000109071
0.000106347
0.000103683
0.00010108
9.8538e-05
9.60563e-05
9.36353e-05
9.12749e-05
8.89756e-05
8.67377e-05
8.45619e-05
8.24489e-05
8.03997e-05
7.84156e-05
7.64979e-05
7.46486e-05
7.28698e-05
7.1164e-05
6.95344e-05
6.79845e-05
6.65183e-05
6.51407e-05
6.38573e-05
6.26744e-05
6.15994e-05
6.06408e-05
5.98083e-05
5.91129e-05
5.85674e-05
5.81863e-05
5.79862e-05
6.31462e-08
2.02404e-07
3.55302e-07
5.22706e-07
7.05506e-07
9.04518e-07
1.12052e-06
1.35429e-06
1.60662e-06
1.87832e-06
2.17026e-06
2.48331e-06
2.81838e-06
3.1764e-06
3.55832e-06
3.96512e-06
4.39777e-06
4.85729e-06
5.34468e-06
5.86097e-06
6.40722e-06
6.98447e-06
7.59379e-06
8.23626e-06
8.91297e-06
9.62503e-06
1.03735e-05
1.11596e-05
1.19844e-05
1.28491e-05
1.37548e-05
1.47026e-05
1.56937e-05
1.67293e-05
1.78106e-05
1.89388e-05
2.0115e-05
2.13404e-05
2.26162e-05
2.39436e-05
2.53238e-05
2.6758e-05
2.82474e-05
2.97932e-05
3.13966e-05
3.30588e-05
3.4781e-05
3.65643e-05
3.84099e-05
4.0319e-05
4.22929e-05
4.43325e-05
4.64392e-05
4.8614e-05
5.08582e-05
5.31727e-05
5.55587e-05
5.80174e-05
6.05498e-05
6.3157e-05
6.584e-05
6.85999e-05
7.14378e-05
7.43545e-05
7.73512e-05
8.04287e-05
8.3588e-05
8.68301e-05
9.01558e-05
9.35659e-05
9.70614e-05
0.000100643
0.000104312
0.000108068
0.000111913
0.000115846
0.00011987
0.000123984
0.000128188
0.000132485
0.000136873
0.000141354
0.000145927
0.000150594
0.000155354
0.000160208
0.000165157
0.000170199
0.000175336
0.000180567
0.000185893
0.000191314
0.000196828
0.000202437
0.00020814
0.000213937
0.000219827
0.00022581
0.000231886
0.000238054
0.000244314
0.000250664
0.000257105
0.000263635
0.000270253
0.00027696
0.000283752
0.000290631
0.000297594
0.00030464
0.000311768
0.000318977
0.000326264
0.00033363
0.000341071
0.000348587
0.000356176
0.000363836
0.000371564
0.00037936
0.00038722
0.000395143
0.000403127
0.00041117
0.000419268
0.00042742
0.000435623
0.000443875
0.000452173
0.000460514
0.000468895
0.000477314
0.000485768
0.000494253
0.000502767
0.000511307
0.000519869
0.000528451
0.000537048
0.000545657
0.000554276
0.000562901
0.000571528
0.000580153
0.000588774
0.000597386
0.000605985
0.000614569
0.000623133
0.000631673
0.000640187
0.000648668
0.000657115
0.000665523
0.000673888
0.000682206
0.000690474
0.000698686
0.00070684
0.000714932
0.000722957
0.000730911
0.000738792
0.000746593
0.000754313
0.000761946
0.000769489
0.000776938
0.000784289
0.000791539
0.000798683
0.000805718
0.000812641
0.000819447
0.000826133
0.000832695
0.000839131
0.000845436
0.000851607
0.000857641
0.000863535
0.000869286
0.000874889
0.000880343
0.000885645
0.000890791
0.000895779
0.000900606
0.00090527
0.000909768
0.000914097
0.000918256
0.000922243
0.000926054
0.000929688
0.000933144
0.000936419
0.000939512
0.000942421
0.000945145
0.000947682
0.000950031
0.000952192
0.000954163
0.000955942
0.000957531
0.000958927
0.000960131
0.000961141
0.000961958
0.000962582
0.000963012
0.000963249
0.000963292
0.00096315
0.00096281
0.000962276
0.000961551
0.000960635
0.00095953
0.000958236
0.000956755
0.000955087
0.000953235
0.000951199
0.000948982
0.000946584
0.000944008
0.000941255
0.000938327
0.000935227
0.000931957
0.000928518
0.000924914
0.000921146
0.000917217
0.00091313
0.000908887
0.00090449
0.000899944
0.00089525
0.000890412
0.000885433
0.000880315
0.000875061
0.000869676
0.000864162
0.000858522
0.000852759
0.000846878
0.000840881
0.000834771
0.000828553
0.00082223
0.000815805
0.000809281
0.000802663
0.000795954
0.000789157
0.000782276
0.000775315
0.000768277
0.000761166
0.000753985
0.000746738
0.000739429
0.000732061
0.000724638
0.000717162
0.000709639
0.000702071
0.000694461
0.000686814
0.000679132
0.00067142
0.00066368
0.000655915
0.00064813
0.000640327
0.000632509
0.00062468
0.000616843
0.000609
0.000601156
0.000593312
0.000585472
0.000577639
0.000569815
0.000562004
0.000554208
0.000546429
0.000538671
0.000530935
0.000523225
0.000515542
0.00050789
0.00050027
0.000492684
0.000485136
0.000477626
0.000470158
0.000462732
0.000455351
0.000448017
0.000440732
0.000433497
0.000426314
0.000419185
0.00041211
0.000405092
0.000398133
0.000391232
0.000384393
0.000377615
0.0003709
0.00036425
0.000357665
0.000351146
0.000344694
0.00033831
0.000331995
0.00032575
0.000319575
0.000313471
0.000307438
0.000301478
0.00029559
0.000289776
0.000284034
0.000278367
0.000272773
0.000267254
0.00026181
0.00025644
0.000251145
0.000245925
0.000240779
0.000235709
0.000230713
0.000225792
0.000220946
0.000216175
0.000211477
0.000206854
0.000202304
0.000197828
0.000193425
0.000189096
0.000184838
0.000180653
0.00017654
0.000172498
0.000168527
0.000164626
0.000160795
0.000157033
0.000153341
0.000149717
0.000146161
0.000142672
0.00013925
0.000135894
0.000132604
0.000129379
0.000126219
0.000123124
0.000120092
0.000117123
0.000114218
0.000111375
0.000108594
0.000105876
0.000103219
0.000100624
9.809e-05
9.56178e-05
9.32074e-05
9.08589e-05
8.85729e-05
8.63498e-05
8.41904e-05
8.20957e-05
8.00668e-05
7.81053e-05
7.62129e-05
7.43918e-05
7.26446e-05
7.09743e-05
6.93844e-05
6.78791e-05
6.64632e-05
6.51423e-05
6.39231e-05
6.2813e-05
6.18208e-05
6.09568e-05
6.02327e-05
5.96625e-05
5.92622e-05
5.90509e-05
6.22635e-08
1.99515e-07
3.50053e-07
5.14694e-07
6.94371e-07
8.90007e-07
1.10251e-06
1.33275e-06
1.58163e-06
1.85003e-06
2.13883e-06
2.44895e-06
2.78129e-06
3.13679e-06
3.51639e-06
3.92106e-06
4.35177e-06
4.80952e-06
5.29531e-06
5.81018e-06
6.35517e-06
6.93132e-06
7.53972e-06
8.18145e-06
8.85761e-06
9.5693e-06
1.03177e-05
1.11038e-05
1.19289e-05
1.27941e-05
1.37006e-05
1.46495e-05
1.5642e-05
1.66794e-05
1.77627e-05
1.88932e-05
2.00721e-05
2.13007e-05
2.258e-05
2.39114e-05
2.5296e-05
2.67351e-05
2.82299e-05
2.97816e-05
3.13914e-05
3.30605e-05
3.47902e-05
3.65816e-05
3.84359e-05
4.03544e-05
4.23382e-05
4.43886e-05
4.65067e-05
4.86936e-05
5.09505e-05
5.32787e-05
5.56791e-05
5.8153e-05
6.07014e-05
6.33254e-05
6.60262e-05
6.88047e-05
7.16621e-05
7.45993e-05
7.76173e-05
8.07172e-05
8.38999e-05
8.71664e-05