/*--------------------------------*- C++ -*----------------------------------*\
  =========                 |
  \\      /  F ield         | OpenFOAM: The Open Source CFD Toolbox
   \\    /   O peration     | Website:  https://openfoam.org
    \\  /    A nd           | Version:  dev
     \\/     M anipulation  |
\*---------------------------------------------------------------------------*/
FoamFile
{
    format      ascii;
    class       volScalarField;
    location    "0.04";
    object      beta;
}
// * * * * * * * * * * * * * * * * * * * * * * * * * * * * * * * * * * * * * //

dimensions      [0 0 0 0 0 0 0];

internalField   uniform 0;

boundaryField
{
    frontAndBack
    {
        type            empty;
    }
    inlet
    {
        type            calculated;
        value           uniform 0;
    }
    outlet
    {
        type            calculated;
        value           uniform 0;
    }
    substrate
    {
        type            calculated;
        value           nonuniform List<scalar> 
400
(
0.00818863
0.00832253
0.00843005
0.00852638
0.00861456
0.00869569
0.00877084
0.00884085
0.00890636
0.00896787
0.00902576
0.00908038
0.009132
0.00918084
0.0092271
0.00927095
0.00931253
0.00935198
0.0093894
0.00942491
0.0094586
0.00949055
0.00952085
0.00954957
0.00957678
0.00960255
0.00962695
0.00965004
0.00967187
0.00969251
0.00971201
0.00973042
0.00974779
0.00976418
0.00977962
0.00979418
0.00980788
0.00982077
0.00983289
0.00984429
0.00985499
0.00986504
0.00987447
0.00988331
0.00989159
0.00989935
0.0099066
0.00991339
0.00991974
0.00992567
0.0099312
0.00993636
0.00994117
0.00994566
0.00994983
0.00995372
0.00995733
0.00996068
0.0099638
0.00996669
0.00996937
0.00997186
0.00997416
0.00997629
0.00997826
0.00998008
0.00998176
0.00998331
0.00998474
0.00998605
0.00998727
0.00998838
0.00998941
0.00999035
0.00999122
0.00999201
0.00999274
0.0099934
0.00999401
0.00999457
0.00999508
0.00999554
0.00999597
0.00999635
0.00999671
0.00999703
0.00999732
0.00999758
0.00999782
0.00999804
0.00999824
0.00999842
0.00999858
0.00999873
0.00999886
0.00999898
0.00999908
0.00999918
0.00999927
0.00999935
0.00999942
0.00999948
0.00999954
0.00999959
0.00999963
0.00999968
0.00999971
0.00999974
0.00999977
0.0099998
0.00999982
0.00999984
0.00999986
0.00999988
0.00999989
0.00999991
0.00999992
0.00999993
0.00999994
0.00999994
0.00999995
0.00999996
0.00999996
0.00999997
0.00999997
0.00999997
0.00999998
0.00999998
0.00999998
0.00999999
0.00999999
0.00999999
0.00999999
0.00999999
0.00999999
0.00999999
0.00999999
0.01
0.01
0.01
0.01
0.01
0.01
0.01
0.01
0.01
0.01
0.01
0.01
0.01
0.01
0.01
0.01
0.01
0.01
0.01
0.01
0.01
0.01
0.01
0.01
0.01
0.01
0.01
0.01
0.01
0.01
0.01
0.01
0.01
0.01
0.01
0.01
0.01
0.01
0.01
0.01
0.01
0.01
0.01
0.01
0.01
0.01
0.01
0.01
0.01
0.01
0.01
0.01
0.01
0.01
0.01
0.01
0.01
0.01
0.01
0.01
0.01
0.01
0.01
0.01
0.01
0.01
0.01
0.01
0.01
0.01
0.01
0.01
0.01
0.01
0.01
0.01
0.01
0.01
0.01
0.01
0.01
0.01
0.01
0.01
0.01
0.01
0.01
0.01
0.01
0.01
0.01
0.01
0.01
0.01
0.01
0.01
0.01
0.01
0.01
0.01
0.01
0.01
0.01
0.01
0.01
0.01
0.01
0.01
0.01
0.01
0.01
0.01
0.01
0.01
0.01
0.01
0.01
0.01
0.01
0.01
0.01
0.01
0.01
0.01
0.01
0.01
0.01
0.01
0.01
0.01
0.01
0.01
0.01
0.01
0.01
0.01
0.01
0.01
0.01
0.01
0.01
0.01
0.01
0.01
0.01
0.01
0.01
0.01
0.01
0.01
0.01
0.01
0.01
0.01
0.01
0.01
0.01
0.01
0.01
0.01
0.01
0.01
0.01
0.01
0.01
0.01
0.01
0.01
0.01
0.01
0.01
0.01
0.01
0.01
0.01
0.01
0.01
0.01
0.01
0.01
0.01
0.01
0.01
0.01
0.01
0.01
0.01
0.01
0.01
0.01
0.01
0.01
0.01
0.01
0.01
0.01
0.01
0.01
0.01
0.01
0.01
0.01
0.01
0.01
0.01
0.01
0.01
0.01
0.01
0.01
0.01
0.01
0.01
0.01
0.01
0.01
0.01
0.01
0.01
0.01
0.01
0.01
0.01
0.01
0.01
0.01
0.01
0.01
0.01
0.01
0.01
0.01
0.01
0.01
0.01
0.01
0.01
0.01
0.01
0.01
0.01
0.01
0.01
0.01
0.01
0.01
0.01
0.01
0.01
0.01
0.01
0.01
0.01
0.01
0.01
0.01
0.01
0.01
0.01
0.01
0.01
0.01
0.01
)
;
    }
    Wall
    {
        type            calculated;
        value           nonuniform List<scalar> 
400
(
0.00818863
0.00832252
0.00843005
0.00852638
0.00861456
0.00869569
0.00877084
0.00884085
0.00890635
0.00896785
0.00902575
0.00908037
0.00913198
0.00918082
0.00922708
0.00927092
0.00931251
0.00935195
0.00938938
0.00942489
0.00945858
0.00949053
0.00952083
0.00954954
0.00957676
0.00960253
0.00962693
0.00965002
0.00967185
0.00969249
0.00971199
0.0097304
0.00974777
0.00976416
0.00977961
0.00979416
0.00980786
0.00982076
0.00983288
0.00984428
0.00985498
0.00986503
0.00987446
0.0098833
0.00989158
0.00989934
0.0099066
0.00991339
0.00991973
0.00992566
0.00993119
0.00993635
0.00994117
0.00994565
0.00994983
0.00995371
0.00995732
0.00996068
0.0099638
0.00996669
0.00996937
0.00997185
0.00997416
0.00997629
0.00997825
0.00998007
0.00998175
0.00998331
0.00998473
0.00998605
0.00998726
0.00998838
0.00998941
0.00999035
0.00999121
0.00999201
0.00999273
0.0099934
0.00999401
0.00999457
0.00999508
0.00999554
0.00999597
0.00999635
0.0099967
0.00999703
0.00999732
0.00999758
0.00999782
0.00999804
0.00999824
0.00999842
0.00999858
0.00999873
0.00999886
0.00999898
0.00999908
0.00999918
0.00999927
0.00999935
0.00999942
0.00999948
0.00999954
0.00999959
0.00999963
0.00999968
0.00999971
0.00999974
0.00999977
0.0099998
0.00999982
0.00999984
0.00999986
0.00999988
0.00999989
0.00999991
0.00999992
0.00999993
0.00999994
0.00999994
0.00999995
0.00999996
0.00999996
0.00999997
0.00999997
0.00999997
0.00999998
0.00999998
0.00999998
0.00999999
0.00999999
0.00999999
0.00999999
0.00999999
0.00999999
0.00999999
0.00999999
0.01
0.01
0.01
0.01
0.01
0.01
0.01
0.01
0.01
0.01
0.01
0.01
0.01
0.01
0.01
0.01
0.01
0.01
0.01
0.01
0.01
0.01
0.01
0.01
0.01
0.01
0.01
0.01
0.01
0.01
0.01
0.01
0.01
0.01
0.01
0.01
0.01
0.01
0.01
0.01
0.01
0.01
0.01
0.01
0.01
0.01
0.01
0.01
0.01
0.01
0.01
0.01
0.01
0.01
0.01
0.01
0.01
0.01
0.01
0.01
0.01
0.01
0.01
0.01
0.01
0.01
0.01
0.01
0.01
0.01
0.01
0.01
0.01
0.01
0.01
0.01
0.01
0.01
0.01
0.01
0.01
0.01
0.01
0.01
0.01
0.01
0.01
0.01
0.01
0.01
0.01
0.01
0.01
0.01
0.01
0.01
0.01
0.01
0.01
0.01
0.01
0.01
0.01
0.01
0.01
0.01
0.01
0.01
0.01
0.01
0.01
0.01
0.01
0.01
0.01
0.01
0.01
0.01
0.01
0.01
0.01
0.01
0.01
0.01
0.01
0.01
0.01
0.01
0.01
0.01
0.01
0.01
0.01
0.01
0.01
0.01
0.01
0.01
0.01
0.01
0.01
0.01
0.01
0.01
0.01
0.01
0.01
0.01
0.01
0.01
0.01
0.01
0.01
0.01
0.01
0.01
0.01
0.01
0.01
0.01
0.01
0.01
0.01
0.01
0.01
0.01
0.01
0.01
0.01
0.01
0.01
0.01
0.01
0.01
0.01
0.01
0.01
0.01
0.01
0.01
0.01
0.01
0.01
0.01
0.01
0.01
0.01
0.01
0.01
0.01
0.01
0.01
0.01
0.01
0.01
0.01
0.01
0.01
0.01
0.01
0.01
0.01
0.01
0.01
0.01
0.01
0.01
0.01
0.01
0.01
0.01
0.01
0.01
0.01
0.01
0.01
0.01
0.01
0.01
0.01
0.01
0.01
0.01
0.01
0.01
0.01
0.01
0.01
0.01
0.01
0.01
0.01
0.01
0.01
0.01
0.01
0.01
0.01
0.01
0.01
0.01
0.01
0.01
0.01
0.01
0.01
0.01
0.01
0.01
0.01
0.01
0.01
0.01
0.01
0.01
0.01
0.01
0.01
0.01
0.01
0.01
0.01
0.01
)
;
    }
}


// ************************************************************************* //
