/*--------------------------------*- C++ -*----------------------------------*\
  =========                 |
  \\      /  F ield         | OpenFOAM: The Open Source CFD Toolbox
   \\    /   O peration     | Website:  https://openfoam.org
    \\  /    A nd           | Version:  dev
     \\/     M anipulation  |
\*---------------------------------------------------------------------------*/
FoamFile
{
    format      ascii;
    class       volScalarField;
    location    "0.04";
    object      Exp1;
}
// * * * * * * * * * * * * * * * * * * * * * * * * * * * * * * * * * * * * * //

dimensions      [0 0 0 0 0 0 0];

internalField   uniform 0;

boundaryField
{
    frontAndBack
    {
        type            empty;
    }
    inlet
    {
        type            calculated;
        value           uniform 0;
    }
    outlet
    {
        type            calculated;
        value           uniform 0;
    }
    substrate
    {
        type            calculated;
        value           nonuniform List<scalar> 
400
(
0.100718
0.094011
0.0887985
0.0841594
0.0799166
0.076012
0.0723874
0.0689972
0.0658078
0.0627939
0.0599359
0.0572177
0.0546266
0.052152
0.0497853
0.0475191
0.0453474
0.0432648
0.0412668
0.0393495
0.0375092
0.0357428
0.0340474
0.0324202
0.0308588
0.0293608
0.027924
0.0265463
0.0252257
0.0239601
0.0227478
0.0215869
0.0204756
0.0194123
0.0183953
0.017423
0.0164938
0.0156062
0.0147587
0.0139499
0.0131784
0.0124428
0.0117419
0.0110742
0.0104387
0.00983391
0.00925881
0.00871222
0.008193
0.00770007
0.00723236
0.00678885
0.00636854
0.00597046
0.00559367
0.00523724
0.00490031
0.004582
0.00428149
0.00399797
0.00373066
0.00347881
0.00324169
0.0030186
0.00280885
0.0026118
0.0024268
0.00225326
0.00209057
0.00193819
0.00179556
0.00166216
0.0015375
0.0014211
0.00131249
0.00121123
0.0011169
0.00102911
0.000947454
0.000871581
0.000801136
0.000735786
0.000675214
0.000619118
0.000567213
0.000519227
0.000474904
0.000433998
0.000396281
0.000361534
0.000329552
0.000300142
0.000273121
0.000248317
0.00022557
0.000204728
0.000185648
0.000168199
0.000152255
0.000137701
0.000124426
0.000112332
0.000101322
9.13086e-05
8.22109e-05
7.39527e-05
6.64638e-05
5.96789e-05
5.35377e-05
4.79846e-05
4.2968e-05
3.84405e-05
3.43584e-05
3.06814e-05
2.73726e-05
2.43979e-05
2.17263e-05
1.93292e-05
1.71805e-05
1.52564e-05
1.35351e-05
1.19967e-05
1.06232e-05
9.39802e-06
8.30634e-06
7.33454e-06
6.4703e-06
5.70249e-06
5.02103e-06
4.4168e-06
3.88159e-06
3.40799e-06
2.98932e-06
2.61958e-06
2.29339e-06
2.00589e-06
1.75275e-06
1.53009e-06
1.33444e-06
1.16269e-06
1.01207e-06
8.80122e-07
7.64638e-07
6.63669e-07
5.75478e-07
4.98527e-07
4.31449e-07
3.73037e-07
3.22223e-07
2.78062e-07
2.39722e-07
2.06469e-07
1.77657e-07
1.52719e-07
1.31154e-07
1.12526e-07
9.64507e-08
8.25919e-08
7.06563e-08
6.03871e-08
5.15607e-08
4.3982e-08
3.7481e-08
3.19101e-08
2.7141e-08
2.30625e-08
1.95779e-08
1.66038e-08
1.4068e-08
1.19079e-08
1.00698e-08
8.50728e-09
7.18027e-09
6.05443e-09
5.10021e-09
4.29226e-09
3.60883e-09
3.0313e-09
2.54376e-09
2.13258e-09
1.78615e-09
1.49457e-09
1.24939e-09
1.04343e-09
8.70591e-10
7.25688e-10
6.04325e-10
5.02779e-10
4.17897e-10
3.47015e-10
2.87881e-10
2.38597e-10
1.97562e-10
1.6343e-10
1.35066e-10
1.11519e-10
9.19897e-11
7.58088e-11
6.2415e-11
5.13391e-11
4.21888e-11
3.46367e-11
2.84097e-11
2.32803e-11
1.90591e-11
1.55886e-11
1.27381e-11
1.03991e-11
8.48166e-12
6.91129e-12
5.62641e-12
4.57613e-12
3.71843e-12
3.01868e-12
2.44834e-12
1.9839e-12
1.60608e-12
1.29901e-12
1.04967e-12
8.47413e-13
6.83493e-13
5.50773e-13
4.43416e-13
3.56657e-13
2.86609e-13
2.30108e-13
1.84575e-13
1.47917e-13
1.18431e-13
9.47366e-14
7.57135e-14
6.0455e-14
4.82277e-14
3.84385e-14
3.06085e-14
2.43514e-14
1.93559e-14
1.53713e-14
1.21959e-14
9.66783e-15
7.65688e-15
6.05877e-15
4.78991e-15
3.78339e-15
2.9857e-15
2.35409e-15
1.85444e-15
1.45953e-15
1.14771e-15
9.01698e-16
7.07793e-16
5.55094e-16
4.34953e-16
3.40514e-16
2.66346e-16
2.08148e-16
1.62524e-16
1.26789e-16
9.8825e-17
7.6961e-17
5.98818e-17
4.65522e-17
3.61583e-17
2.80606e-17
2.17575e-17
1.68556e-17
1.30468e-17
1.009e-17
7.7965e-18
6.01915e-18
4.64299e-18
3.57838e-18
2.75552e-18
2.12006e-18
1.62976e-18
1.25178e-18
9.60639e-19
7.36587e-19
5.64313e-19
4.31964e-19
3.30375e-19
2.52464e-19
1.92764e-19
1.47058e-19
1.12094e-19
8.53719e-20
6.49655e-20
4.93954e-20
3.75257e-20
2.84845e-20
2.16036e-20
1.63713e-20
1.2396e-20
9.37818e-21
7.0892e-21
5.35448e-21
4.04092e-21
3.04709e-21
2.2958e-21
1.72833e-21
1.30007e-21
9.77122e-22
7.338e-22
5.50622e-22
4.12835e-22
3.09277e-22
2.31508e-22
1.73155e-22
1.29405e-22
9.66318e-23
7.21007e-23
5.37539e-23
4.00435e-23
2.98063e-23
2.21685e-23
1.64748e-23
1.22337e-23
9.07714e-24
6.72972e-24
4.98542e-24
3.69032e-24
2.7295e-24
2.01726e-24
1.4897e-24
1.09924e-24
8.10494e-25
5.97127e-25
4.39587e-25
3.23359e-25
2.37678e-25
1.74564e-25
1.2811e-25
9.3946e-26
6.88395e-26
5.04037e-26
3.68768e-26
2.69595e-26
1.96941e-26
1.43758e-26
1.04856e-26
7.6423e-27
5.56577e-27
4.0504e-27
2.94537e-27
2.1402e-27
1.55397e-27
1.12746e-27
8.17401e-28
5.92165e-28
4.28672e-28
3.10086e-28
2.24138e-28
1.61892e-28
1.16846e-28
8.4271e-29
6.07325e-29
4.37365e-29
3.14735e-29
2.26322e-29
1.62626e-29
1.16771e-29
8.37836e-30
6.00714e-30
4.30387e-30
3.0813e-30
2.20441e-30
1.57593e-30
1.12581e-30
8.03679e-31
5.73304e-31
4.08671e-31
2.91106e-31
2.07213e-31
1.47391e-31
1.04765e-31
7.44133e-32
5.28172e-32
3.74621e-32
2.65522e-32
1.88062e-32
1.33105e-32
9.41419e-33
6.65373e-33
4.69939e-33
3.31676e-33
2.33929e-33
1.64874e-33
1.16125e-33
8.17344e-34
5.74925e-34
4.04182e-34
2.8404e-34
1.99611e-34
1.40398e-34
9.90185e-35
7.03062e-35
5.06797e-35
3.77068e-35
2.98064e-35
2.60531e-35
)
;
    }
    Wall
    {
        type            calculated;
        value           nonuniform List<scalar> 
400
(
0.100718
0.0940111
0.0887987
0.0841595
0.0799167
0.0760121
0.0723876
0.0689974
0.0658081
0.0627944
0.0599364
0.0572183
0.0546273
0.0521528
0.0497861
0.04752
0.0453483
0.0432658
0.0412678
0.0393505
0.0375103
0.0357439
0.0340484
0.0324213
0.0308598
0.0293619
0.0279251
0.0265473
0.0252267
0.0239611
0.0227488
0.0215878
0.0204765
0.0194132
0.0183962
0.0174238
0.0164946
0.0156069
0.0147594
0.0139506
0.0131791
0.0124435
0.0117425
0.0110749
0.0104393
0.00983448
0.00925936
0.00871275
0.0081935
0.00770055
0.00723283
0.0067893
0.00636897
0.00597087
0.00559406
0.00523761
0.00490066
0.00458234
0.00428181
0.00399827
0.00373095
0.00347909
0.00324196
0.00301885
0.00280909
0.00261203
0.00242702
0.00225346
0.00209077
0.00193837
0.00179573
0.00166233
0.00153766
0.00142124
0.00131262
0.00121136
0.00111702
0.00102922
0.000947562
0.000871682
0.000801231
0.000735875
0.000675297
0.000619196
0.000567286
0.000519296
0.000474967
0.000434057
0.000396336
0.000361585
0.0003296
0.000300186
0.000273162
0.000248355
0.000225605
0.00020476
0.000185679
0.000168227
0.000152281
0.000137724
0.000124448
0.000112352
0.00010134
9.13256e-05
8.22265e-05
7.39671e-05
6.64769e-05
5.96909e-05
5.35488e-05
4.79947e-05
4.29772e-05
3.84489e-05
3.43661e-05
3.06884e-05
2.73789e-05
2.44036e-05
2.17315e-05
1.93339e-05
1.71848e-05
1.52602e-05
1.35386e-05
1.19998e-05
1.0626e-05
9.40059e-06
8.30866e-06
7.33662e-06
6.47217e-06
5.70417e-06
5.02253e-06
4.41815e-06
3.8828e-06
3.40907e-06
2.99028e-06
2.62044e-06
2.29415e-06
2.00657e-06
1.75336e-06
1.53063e-06
1.33492e-06
1.16311e-06
1.01245e-06
8.80454e-07
7.64932e-07
6.63928e-07
5.75707e-07
4.98728e-07
4.31626e-07
3.73193e-07
3.2236e-07
2.78182e-07
2.39827e-07
2.06561e-07
1.77738e-07
1.52789e-07
1.31216e-07
1.1258e-07
9.64975e-08
8.26327e-08
7.06917e-08
6.0418e-08
5.15875e-08
4.40051e-08
3.7501e-08
3.19275e-08
2.7156e-08
2.30754e-08
1.95891e-08
1.66134e-08
1.40763e-08
1.1915e-08
1.0076e-08
8.51253e-09
7.18478e-09
6.05829e-09
5.10352e-09
4.29508e-09
3.61124e-09
3.03336e-09
2.54551e-09
2.13407e-09
1.78742e-09
1.49565e-09
1.2503e-09
1.04421e-09
8.71248e-10
7.26244e-10
6.04795e-10
5.03176e-10
4.18232e-10
3.47297e-10
2.88119e-10
2.38797e-10
1.9773e-10
1.63571e-10
1.35184e-10
1.11618e-10
9.20725e-11
7.5878e-11
6.24728e-11
5.13873e-11
4.2229e-11
3.46702e-11
2.84376e-11
2.33035e-11
1.90783e-11
1.56046e-11
1.27514e-11
1.04101e-11
8.49072e-12
6.91877e-12
5.63258e-12
4.58122e-12
3.72263e-12
3.02214e-12
2.45118e-12
1.98624e-12
1.608e-12
1.30058e-12
1.05096e-12
8.48465e-13
6.84354e-13
5.51476e-13
4.43989e-13
3.57124e-13
2.8699e-13
2.30417e-13
1.84827e-13
1.48122e-13
1.18597e-13
9.4871e-14
7.58222e-14
6.0543e-14
4.82988e-14
3.84959e-14
3.06548e-14
2.43888e-14
1.9386e-14
1.53955e-14
1.22154e-14
9.68342e-15
7.66938e-15
6.06879e-15
4.79793e-15
3.7898e-15
2.99082e-15
2.35818e-15
1.8577e-15
1.46214e-15
1.14978e-15
9.03344e-16
7.09101e-16
5.56133e-16
4.35777e-16
3.41167e-16
2.66862e-16
2.08557e-16
1.62848e-16
1.27045e-16
9.90263e-17
7.71196e-17
6.00067e-17
4.66505e-17
3.62355e-17
2.81212e-17
2.18051e-17
1.68929e-17
1.3076e-17
1.01128e-17
7.81436e-18
6.0331e-18
4.65387e-18
3.58687e-18
2.76213e-18
2.12521e-18
1.63376e-18
1.25488e-18
9.6305e-19
7.38457e-19
5.65762e-19
4.33085e-19
3.31242e-19
2.53135e-19
1.93282e-19
1.47457e-19
1.12402e-19
8.56088e-20
6.51478e-20
4.95356e-20
3.76333e-20
2.85671e-20
2.16669e-20
1.64198e-20
1.24331e-20
9.40658e-21
7.1109e-21
5.37105e-21
4.05356e-21
3.05672e-21
2.30314e-21
1.73391e-21
1.30431e-21
9.80344e-22
7.36245e-22
5.52476e-22
4.1424e-22
3.1034e-22
2.32312e-22
1.73763e-22
1.29864e-22
9.69781e-23
7.23617e-23
5.39505e-23
4.01915e-23
2.99175e-23
2.22521e-23
1.65375e-23
1.22807e-23
9.11242e-24
6.75615e-24
5.00519e-24
3.7051e-24
2.74054e-24
2.0255e-24
1.49584e-24
1.10382e-24
8.13905e-25
5.99665e-25
4.41474e-25
3.24761e-25
2.38718e-25
1.75335e-25
1.28682e-25
9.43692e-26
6.91526e-26
5.06352e-26
3.70478e-26
2.70857e-26
1.97872e-26
1.44443e-26
1.05361e-26
7.67945e-27
5.59308e-27
4.07046e-27
2.9601e-27
2.151e-27
1.56188e-27
1.13326e-27
8.21642e-28
5.95266e-28
4.30937e-28
3.1174e-28
2.25345e-28
1.62772e-28
1.17486e-28
8.47371e-29
6.10715e-29
4.39827e-29
3.16523e-29
2.2762e-29
1.63567e-29
1.17452e-29
8.4277e-30
6.04282e-30
4.32966e-30
3.09993e-30
2.21786e-30
1.58563e-30
1.1328e-30
8.08711e-31
5.76925e-31
4.11275e-31
2.92977e-31
2.08556e-31
1.48355e-31
1.05456e-31
7.49083e-32
5.31716e-32
3.77156e-32
2.67334e-32
1.89356e-32
1.34029e-32
9.48007e-33
6.70068e-33
4.73284e-33
3.34057e-33
2.35622e-33
1.66077e-33
1.16979e-33
8.23408e-34
5.79226e-34
4.07231e-34
2.862e-34
2.01141e-34
1.41483e-34
9.979e-35
7.08578e-35
5.10795e-35
3.80045e-35
3.00414e-35
2.6258e-35
)
;
    }
}


// ************************************************************************* //
