/*--------------------------------*- C++ -*----------------------------------*\
  =========                 |
  \\      /  F ield         | OpenFOAM: The Open Source CFD Toolbox
   \\    /   O peration     | Website:  https://openfoam.org
    \\  /    A nd           | Version:  dev
     \\/     M anipulation  |
\*---------------------------------------------------------------------------*/
FoamFile
{
    format      ascii;
    class       volScalarField;
    location    "0.04";
    object      growth;
}
// * * * * * * * * * * * * * * * * * * * * * * * * * * * * * * * * * * * * * //

dimensions      [0 0 0 0 0 0 0];

internalField   uniform 0;

boundaryField
{
    frontAndBack
    {
        type            empty;
    }
    inlet
    {
        type            calculated;
        value           uniform 0;
    }
    outlet
    {
        type            calculated;
        value           uniform 0;
    }
    substrate
    {
        type            calculated;
        value           nonuniform List<scalar> 
400
(
0.181137
0.167747
0.156995
0.147362
0.138544
0.130431
0.122916
0.115915
0.109364
0.103213
0.0974236
0.0919616
0.0868002
0.0819163
0.0772903
0.0729055
0.0687471
0.0648024
0.0610597
0.0575087
0.05414
0.0509448
0.0479151
0.0450433
0.0423221
0.0397448
0.037305
0.0349963
0.0328129
0.0307491
0.0287993
0.0269582
0.0252208
0.0235821
0.0220375
0.0205823
0.0192122
0.017923
0.0167105
0.015571
0.0145006
0.0134957
0.012553
0.0116692
0.0108409
0.0100654
0.00933951
0.00866064
0.00802611
0.00743339
0.00688009
0.00636391
0.00588269
0.00543433
0.00501688
0.00462846
0.00426729
0.00393169
0.00362006
0.00333088
0.00306273
0.00281423
0.00258412
0.00237118
0.00217427
0.00199232
0.0018243
0.00166927
0.00152632
0.0013946
0.00127334
0.00116176
0.00105919
0.000964968
0.000878473
0.000799135
0.000726418
0.00065982
0.000598875
0.000543144
0.000492223
0.000445733
0.000403322
0.000364663
0.000329452
0.000297408
0.000268269
0.000241793
0.000217757
0.000195954
0.000176192
0.000158296
0.000142103
0.000127462
0.000114237
0.000102301
9.1536e-05
8.18366e-05
7.31045e-05
6.52499e-05
5.81907e-05
5.18519e-05
4.61649e-05
4.1067e-05
3.65013e-05
3.24157e-05
2.8763e-05
2.55002e-05
2.25882e-05
1.99917e-05
1.76784e-05
1.56194e-05
1.37882e-05
1.21613e-05
1.0717e-05
9.436e-06
8.30091e-06
7.29599e-06
6.40713e-06
5.62162e-06
4.92809e-06
4.31631e-06
3.77715e-06
3.30242e-06
2.88481e-06
2.51777e-06
2.19548e-06
1.91274e-06
1.66493e-06
1.44794e-06
1.2581e-06
1.09217e-06
9.47281e-07
8.20874e-07
7.10697e-07
6.14755e-07
5.31286e-07
4.58737e-07
3.95737e-07
3.41081e-07
2.93708e-07
2.52686e-07
2.17197e-07
1.86523e-07
1.60036e-07
1.37185e-07
1.17491e-07
1.00532e-07
8.59429e-08
7.34041e-08
6.26376e-08
5.34016e-08
4.5486e-08
3.87083e-08
3.29105e-08
2.79556e-08
2.3725e-08
2.01162e-08
1.70408e-08
1.44224e-08
1.21951e-08
1.03024e-08
8.69546e-09
7.33247e-09
6.17747e-09
5.19964e-09
4.37258e-09
3.67372e-09
3.08373e-09
2.58612e-09
2.16683e-09
1.81385e-09
1.51699e-09
1.26755e-09
1.05816e-09
8.82552e-10
7.35414e-10
6.12247e-10
5.09242e-10
4.2318e-10
3.51341e-10
2.91432e-10
2.41517e-10
1.99969e-10
1.65417e-10
1.36711e-10
1.12884e-10
9.3124e-11
7.67534e-11
6.3203e-11
5.19976e-11
4.27399e-11
3.50986e-11
2.87973e-11
2.36058e-11
1.93327e-11
1.58187e-11
1.29318e-11
1.05621e-11
8.61888e-12
7.02681e-12
5.72366e-12
4.65797e-12
3.78728e-12
3.07657e-12
2.49698e-12
2.02476e-12
1.64037e-12
1.32775e-12
1.07375e-12
8.67564e-13
7.00341e-13
5.64844e-13
4.55155e-13
3.66439e-13
2.94752e-13
2.36877e-13
1.90197e-13
1.5258e-13
1.22294e-13
9.79319e-14
7.83537e-14
6.26339e-14
5.00236e-14
3.99168e-14
3.18238e-14
2.53493e-14
2.01742e-14
1.60414e-14
1.27441e-14
1.01156e-14
8.02219e-15
6.35643e-15
5.03215e-15
3.98027e-15
3.14552e-15
2.48367e-15
1.95937e-15
1.5444e-15
1.21625e-15
9.57001e-16
7.52356e-16
5.9096e-16
4.63785e-16
3.63663e-16
2.84909e-16
2.23018e-16
1.74421e-16
1.36296e-16
1.06413e-16
8.30108e-17
6.46996e-17
5.03844e-17
3.92031e-17
3.04771e-17
2.36732e-17
1.83726e-17
1.42467e-17
1.1038e-17
8.54468e-18
6.60899e-18
5.10748e-18
3.94378e-18
3.04264e-18
2.34544e-18
1.80648e-18
1.3902e-18
1.06895e-18
8.21244e-19
6.30413e-19
4.83522e-19
3.70548e-19
2.83734e-19
2.17079e-19
1.65945e-19
1.2675e-19
9.67333e-20
7.37639e-20
5.62022e-20
4.27864e-20
3.25462e-20
2.47365e-20
1.87854e-20
1.42543e-20
1.08073e-20
8.18721e-21
6.19725e-21
4.68715e-21
3.54214e-21
2.67468e-21
2.01802e-21
1.52134e-21
1.14598e-21
8.62542e-22
6.48683e-22
4.87456e-22
3.66008e-22
2.74598e-22
2.05853e-22
1.54195e-22
1.15409e-22
8.63098e-23
6.44966e-23
4.81581e-23
3.59301e-23
2.67857e-23
1.99529e-23
1.48514e-23
1.10455e-23
8.20848e-24
6.09537e-24
4.5227e-24
3.35317e-24
2.48413e-24
1.83889e-24
1.36019e-24
1.00532e-24
7.42465e-25
5.47911e-25
4.04025e-25
2.97696e-25
2.19181e-25
1.61249e-25
1.18539e-25
8.70745e-26
6.39131e-26
4.68767e-26
3.43552e-26
2.51593e-26
1.84109e-26
1.34624e-26
9.83651e-27
7.18177e-27
5.23956e-27
3.81972e-27
2.78254e-27
2.02547e-27
1.47328e-27
1.07083e-27
7.77732e-28
5.6444e-28
4.09338e-28
2.96636e-28
2.14805e-28
1.55433e-28
1.12388e-28
8.12045e-29
5.86299e-29
4.22999e-29
3.04959e-29
2.19697e-29
1.58158e-29
1.13774e-29
8.17853e-30
5.87481e-30
4.21694e-30
3.02473e-30
2.16801e-30
1.55283e-30
1.1114e-30
7.94894e-31
5.68112e-31
4.05741e-31
2.89569e-31
2.06512e-31
1.47174e-31
1.04811e-31
7.45887e-32
5.30435e-32
3.76951e-32
2.67689e-32
1.89964e-32
1.34711e-32
9.54627e-33
6.76018e-33
4.78387e-33
3.38296e-33
2.39063e-33
1.6882e-33
1.19134e-33
8.40129e-34
5.92046e-34
4.16932e-34
2.9341e-34
2.06342e-34
1.45011e-34
1.0184e-34
7.14738e-35
5.01289e-35
3.51365e-35
2.46145e-35
1.72369e-35
1.20705e-35
8.45958e-36
5.94462e-36
4.20508e-36
3.01949e-36
2.23781e-36
1.76273e-36
1.53732e-36
)
;
    }
    Wall
    {
        type            calculated;
        value           nonuniform List<scalar> 
400
(
0.181137
0.167748
0.156995
0.147362
0.138544
0.130431
0.122916
0.115915
0.109365
0.103215
0.097425
0.0919632
0.0868019
0.0819181
0.0772923
0.0729076
0.0687493
0.0648046
0.061062
0.057511
0.0541423
0.0509472
0.0479174
0.0450455
0.0423243
0.039747
0.0373071
0.0349984
0.032815
0.030751
0.0288012
0.02696
0.0252226
0.0235839
0.0220391
0.0205839
0.0192137
0.0179244
0.0167119
0.0155723
0.0145018
0.0134969
0.0125541
0.0116702
0.0108419
0.0100663
0.00934039
0.00866148
0.00802689
0.00743413
0.00688079
0.00636457
0.0058833
0.00543491
0.00501743
0.00462897
0.00426777
0.00393214
0.00362048
0.00333128
0.0030631
0.00281458
0.00258444
0.00237148
0.00217456
0.00199258
0.00182455
0.0016695
0.00152653
0.0013948
0.00127352
0.00116193
0.00105935
0.000965114
0.000878608
0.00079926
0.000726533
0.000659927
0.000598973
0.000543235
0.000492307
0.00044581
0.000403393
0.000364728
0.000329512
0.000297463
0.000268319
0.000241839
0.000217799
0.000195992
0.000176228
0.000158328
0.000142132
0.000127489
0.000114262
0.000102323
9.15563e-05
8.1855e-05
7.31212e-05
6.52651e-05
5.82045e-05
5.18644e-05
4.61762e-05
4.10772e-05
3.65105e-05
3.24241e-05
2.87706e-05
2.5507e-05
2.25944e-05
1.99972e-05
1.76833e-05
1.56238e-05
1.37922e-05
1.21648e-05
1.07202e-05
9.43887e-06
8.30347e-06
7.29828e-06
6.40917e-06
5.62345e-06
4.92971e-06
4.31776e-06
3.77844e-06
3.30357e-06
2.88582e-06
2.51867e-06
2.19628e-06
1.91345e-06
1.66556e-06
1.44849e-06
1.25859e-06
1.0926e-06
9.47659e-07
8.21208e-07
7.1099e-07
6.15013e-07
5.31512e-07
4.58935e-07
3.95911e-07
3.41234e-07
2.93842e-07
2.52803e-07
2.17299e-07
1.86612e-07
1.60113e-07
1.37253e-07
1.17549e-07
1.00583e-07
8.5987e-08
7.34423e-08
6.26707e-08
5.34303e-08
4.55107e-08
3.87297e-08
3.2929e-08
2.79715e-08
2.37387e-08
2.0128e-08
1.7051e-08
1.44311e-08
1.22026e-08
1.03088e-08
8.70096e-09
7.33718e-09
6.18149e-09
5.20307e-09
4.37552e-09
3.67622e-09
3.08586e-09
2.58793e-09
2.16837e-09
1.81516e-09
1.5181e-09
1.26849e-09
1.05896e-09
8.83227e-10
7.35984e-10
6.12728e-10
5.09648e-10
4.23522e-10
3.51629e-10
2.91674e-10
2.41721e-10
2.0014e-10
1.65561e-10
1.36831e-10
1.12984e-10
9.32082e-11
7.68237e-11
6.32618e-11
5.20466e-11
4.27808e-11
3.51326e-11
2.88255e-11
2.36293e-11
1.93522e-11
1.58349e-11
1.29452e-11
1.05732e-11
8.62806e-12
7.0344e-12
5.72992e-12
4.66313e-12
3.79154e-12
3.08008e-12
2.49987e-12
2.02713e-12
1.64231e-12
1.32935e-12
1.07506e-12
8.68633e-13
7.01215e-13
5.65559e-13
4.55738e-13
3.66915e-13
2.95139e-13
2.37193e-13
1.90453e-13
1.52788e-13
1.22463e-13
9.80691e-14
7.84649e-14
6.27239e-14
5.00964e-14
3.99756e-14
3.18713e-14
2.53876e-14
2.0205e-14
1.60663e-14
1.27641e-14
1.01317e-14
8.03509e-15
6.36678e-15
5.04044e-15
3.98691e-15
3.15083e-15
2.48791e-15
1.96275e-15
1.5471e-15
1.21841e-15
9.58717e-16
7.53722e-16
5.92045e-16
4.64647e-16
3.64347e-16
2.85452e-16
2.23447e-16
1.74761e-16
1.36565e-16
1.06625e-16
8.31784e-17
6.48317e-17
5.04886e-17
3.92851e-17
3.05415e-17
2.37238e-17
1.84123e-17
1.42779e-17
1.10624e-17
8.56381e-18
6.62396e-18
5.11918e-18
3.95291e-18
3.04978e-18
2.351e-18
1.81081e-18
1.39357e-18
1.07157e-18
8.2328e-19
6.31993e-19
4.84747e-19
3.71497e-19
2.84469e-19
2.17648e-19
1.66384e-19
1.2709e-19
9.69951e-20
7.39657e-20
5.63576e-20
4.2906e-20
3.26382e-20
2.48072e-20
1.88396e-20
1.42959e-20
1.08392e-20
8.21161e-21
6.21592e-21
4.70142e-21
3.55304e-21
2.68299e-21
2.02436e-21
1.52617e-21
1.14966e-21
8.65338e-22
6.50808e-22
4.8907e-22
3.67232e-22
2.75526e-22
2.06556e-22
1.54727e-22
1.15811e-22
8.66137e-23
6.4726e-23
4.83311e-23
3.60604e-23
2.68839e-23
2.00268e-23
1.49069e-23
1.10872e-23
8.23979e-24
6.11885e-24
4.5403e-24
3.36635e-24
2.49399e-24
1.84626e-24
1.36569e-24
1.00943e-24
7.45529e-25
5.50194e-25
4.05725e-25
2.9896e-25
2.20121e-25
1.61948e-25
1.19057e-25
8.7459e-26
6.4198e-26
4.70876e-26
3.45113e-26
2.52747e-26
1.84961e-26
1.35253e-26
9.88291e-27
7.21597e-27
5.26474e-27
3.83825e-27
2.79616e-27
2.03548e-27
1.48063e-27
1.07622e-27
7.81684e-28
5.67334e-28
4.11456e-28
2.98185e-28
2.15937e-28
1.5626e-28
1.12992e-28
8.16442e-29
5.89502e-29
4.25331e-29
3.06655e-29
2.2093e-29
1.59054e-29
1.14423e-29
8.22566e-30
5.90896e-30
4.24167e-30
3.04262e-30
2.18095e-30
1.56218e-30
1.11815e-30
7.99763e-31
5.71623e-31
4.0827e-31
2.9139e-31
2.07822e-31
1.48115e-31
1.05487e-31
7.5074e-32
5.33916e-32
3.79445e-32
2.69476e-32
1.91242e-32
1.35626e-32
9.61161e-33
6.80684e-33
4.81717e-33
3.4067e-33
2.40755e-33
1.70025e-33
1.19991e-33
8.46223e-34
5.96376e-34
4.20006e-34
2.95591e-34
2.07888e-34
1.46107e-34
1.02616e-34
7.20227e-35
5.0517e-35
3.54108e-35
2.48082e-35
1.73737e-35
1.2167e-35
8.52777e-36
5.9929e-36
4.23947e-36
3.04431e-36
2.25622e-36
1.77721e-36
1.54991e-36
)
;
    }
}


// ************************************************************************* //
