/*--------------------------------*- C++ -*----------------------------------*\
  =========                 |
  \\      /  F ield         | OpenFOAM: The Open Source CFD Toolbox
   \\    /   O peration     | Website:  https://openfoam.org
    \\  /    A nd           | Version:  dev
     \\/     M anipulation  |
\*---------------------------------------------------------------------------*/
FoamFile
{
    format      ascii;
    class       volScalarField;
    location    "0.04";
    object      N1;
}
// * * * * * * * * * * * * * * * * * * * * * * * * * * * * * * * * * * * * * //

dimensions      [0 0 0 0 0 0 0];

internalField   nonuniform List<scalar> 
8000
(
0.772137
0.72089
0.681049
0.645579
0.613128
0.583255
0.555517
0.529565
0.505144
0.482062
0.460168
0.439341
0.419484
0.400516
0.382371
0.364994
0.348338
0.332364
0.317037
0.302325
0.288203
0.274647
0.261633
0.249142
0.237154
0.225652
0.214619
0.204038
0.193895
0.184174
0.174861
0.165943
0.157405
0.149235
0.141421
0.133949
0.126808
0.119987
0.113474
0.107257
0.101327
0.0956734
0.0902852
0.0851529
0.0802669
0.0756177
0.0711965
0.0669942
0.0630023
0.0592123
0.0556163
0.0522062
0.0489745
0.0459136
0.0430163
0.0402756
0.0376847
0.035237
0.0329262
0.030746
0.0286904
0.0267537
0.0249302
0.0232146
0.0216016
0.0200862
0.0186636
0.0173289
0.0160778
0.0149059
0.0138091
0.0127832
0.0118245
0.0109293
0.010094
0.00931523
0.00858981
0.0079146
0.00728665
0.00670313
0.00616136
0.00565877
0.00519293
0.00476151
0.00436233
0.00399328
0.00365239
0.0033378
0.00304772
0.00278049
0.00253453
0.00230834
0.00210053
0.00190977
0.00173482
0.00157453
0.00142779
0.00129359
0.00117097
0.00105903
0.000956944
0.000863925
0.000779248
0.00070224
0.000632271
0.000568759
0.000511163
0.000458981
0.00041175
0.000369042
0.00033046
0.00029564
0.000264245
0.000235966
0.000210518
0.00018764
0.000167093
0.000148658
0.000132132
0.000117334
0.000104096
9.22646e-05
8.17011e-05
7.22788e-05
6.38828e-05
5.64088e-05
4.97621e-05
4.3857e-05
3.86159e-05
3.39689e-05
2.98527e-05
2.62103e-05
2.29904e-05
2.01468e-05
1.76381e-05
1.5427e-05
1.34802e-05
1.17677e-05
1.0263e-05
8.94208e-06
7.78371e-06
6.76889e-06
5.88072e-06
5.10418e-06
4.42592e-06
3.83409e-06
3.31821e-06
2.86897e-06
2.47817e-06
2.13853e-06
1.84366e-06
1.58792e-06
1.36634e-06
1.17454e-06
1.00869e-06
8.65422e-07
7.41787e-07
6.35202e-07
5.43407e-07
4.64428e-07
3.96546e-07
3.38259e-07
2.8826e-07
2.45416e-07
2.08738e-07
1.7737e-07
1.50571e-07
1.27697e-07
1.08195e-07
9.1582e-08
7.74456e-08
6.54282e-08
5.52224e-08
4.65637e-08
3.9225e-08
3.30111e-08
2.77549e-08
2.33133e-08
1.95636e-08
1.64013e-08
1.3737e-08
1.14945e-08
9.60886e-09
8.02487e-09
6.69558e-09
5.58116e-09
4.64777e-09
3.8668e-09
3.21399e-09
2.66884e-09
2.21405e-09
1.83501e-09
1.51942e-09
1.25691e-09
1.03877e-09
8.57674e-10
7.07479e-10
5.83034e-10
4.80024e-10
3.94841e-10
3.24468e-10
2.66386e-10
2.18495e-10
1.79045e-10
1.46581e-10
1.1989e-10
9.79671e-11
7.99781e-11
6.52312e-11
5.31537e-11
4.32718e-11
3.51943e-11
2.85979e-11
2.32162e-11
1.88298e-11
1.52579e-11
1.23521e-11
9.99048e-12
8.07288e-12
6.51732e-12
5.25664e-12
4.23592e-12
3.41025e-12
2.74299e-12
2.20427e-12
1.76972e-12
1.41954e-12
1.13761e-12
9.10838e-13
7.28605e-13
5.82301e-13
4.64951e-13
3.70912e-13
2.95625e-13
2.35406e-13
1.87283e-13
1.48863e-13
1.18218e-13
9.37972e-14
7.43538e-14
5.88879e-14
4.65971e-14
3.68385e-14
2.90975e-14
2.29625e-14
1.81049e-14
1.42622e-14
1.12251e-14
8.82683e-15
6.93482e-15
5.44353e-15
4.26914e-15
3.34516e-15
2.61885e-15
2.04842e-15
1.60084e-15
1.24995e-15
9.75118e-16
7.60048e-16
5.91895e-16
4.60542e-16
3.58026e-16
2.78088e-16
2.1581e-16
1.67334e-16
1.29634e-16
1.00341e-16
7.76004e-17
5.99617e-17
4.62924e-17
3.57085e-17
2.75208e-17
2.11923e-17
1.63051e-17
1.25342e-17
9.62722e-18
7.38813e-18
5.66498e-18
4.34004e-18
3.32217e-18
2.54086e-18
1.94166e-18
1.48252e-18
1.131e-18
8.621e-19
6.56582e-19
4.99639e-19
3.79893e-19
2.88604e-19
2.1907e-19
1.6615e-19
1.25909e-19
9.53356e-20
7.21262e-20
5.4522e-20
4.11805e-20
3.10781e-20
2.34347e-20
1.76567e-20
1.32924e-20
9.99861e-21
7.51489e-21
5.64354e-21
4.23475e-21
3.17505e-21
2.3786e-21
1.78049e-21
1.33171e-21
9.95237e-22
7.43181e-22
5.54515e-22
4.13413e-22
3.07969e-22
2.29236e-22
1.70495e-22
1.26705e-22
9.40872e-23
6.98109e-23
5.17573e-23
3.83421e-23
2.83817e-23
2.09922e-23
1.55144e-23
1.1457e-23
8.45411e-24
6.23339e-24
4.59241e-24
3.3808e-24
2.48691e-24
1.82794e-24
1.34254e-24
9.85277e-25
7.22525e-25
5.29434e-25
3.87647e-25
2.83614e-25
2.07341e-25
1.51465e-25
1.10562e-25
8.06431e-26
5.87758e-26
4.28055e-26
3.1151e-26
2.26524e-26
1.646e-26
1.19513e-26
8.67114e-27
6.28651e-27
4.55425e-27
3.29685e-27
2.38483e-27
1.72381e-27
1.24509e-27
8.98644e-28
6.48116e-28
4.67085e-28
3.3637e-28
2.42058e-28
1.74061e-28
1.25073e-28
8.98065e-29
6.44367e-29
4.62e-29
3.31004e-29
2.36978e-29
1.69538e-29
1.21202e-29
8.65847e-30
6.18097e-30
4.40919e-30
3.14303e-30
2.23885e-30
1.59364e-30
1.13356e-30
8.05732e-31
5.72302e-31
4.06209e-31
2.88115e-31
2.04209e-31
1.44636e-31
1.02369e-31
7.24031e-32
5.11728e-32
3.61423e-32
2.55087e-32
1.79911e-32
1.26802e-32
8.93096e-33
6.28607e-33
4.42166e-33
3.10851e-33
2.18451e-33
1.53517e-33
1.07978e-33
7.61536e-34
5.40714e-34
3.8977e-34
2.89997e-34
2.29237e-34
2.00371e-34
0.77738
0.734402
0.696903
0.662376
0.630209
0.600224
0.572171
0.545805
0.520919
0.497346
0.474948
0.453612
0.433247
0.413774
0.39513
0.377263
0.360125
0.343679
0.327891
0.31273
0.298171
0.284189
0.270763
0.257871
0.245496
0.233619
0.222223
0.211292
0.200811
0.190764
0.181137
0.171916
0.163087
0.154637
0.146553
0.138823
0.131434
0.124375
0.117633
0.111198
0.105059
0.0992047
0.093625
0.0883097
0.0832489
0.078433
0.0738527
0.0694987
0.0653624
0.0614349
0.0577081
0.0541736
0.0508237
0.0476506
0.0446468
0.0418052
0.0391186
0.0365804
0.0341838
0.0319225
0.0297904
0.0277814
0.0258897
0.0241097
0.0224361
0.0208636
0.0193872
0.0180021
0.0167036
0.0154872
0.0143485
0.0132835
0.0122882
0.0113587
0.0104913
0.00968262
0.00892924
0.00822795
0.00757569
0.00696954
0.0064067
0.00588454
0.00540051
0.00495222
0.00453738
0.00415384
0.00379954
0.00347253
0.00317099
0.00289317
0.00263744
0.00240225
0.00218615
0.00198777
0.00180582
0.0016391
0.00148646
0.00134685
0.00121928
0.00110281
0.000996583
0.000899783
0.000811657
0.000731505
0.000658673
0.000592557
0.000532595
0.000478264
0.000429084
0.00038461
0.000344429
0.000308162
0.000275461
0.000246001
0.00021949
0.000195653
0.000174243
0.000155032
0.00013781
0.000122386
0.000108587
9.62532e-05
8.52402e-05
7.54162e-05
6.66615e-05
5.88674e-05
5.19354e-05
4.57763e-05
4.03094e-05
3.54616e-05
3.11672e-05
2.73668e-05
2.40069e-05
2.10394e-05
1.84211e-05
1.61132e-05
1.4081e-05
1.22933e-05
1.07223e-05
9.3431e-06
8.13349e-06
7.07368e-06
6.14605e-06
5.33494e-06
4.62642e-06
4.00814e-06
3.46914e-06
2.99973e-06
2.59134e-06
2.23639e-06
1.9282e-06
1.66088e-06
1.42924e-06
1.22872e-06
1.05531e-06
9.05501e-07
7.76209e-07
6.64736e-07
5.68723e-07
4.86108e-07
4.15093e-07
3.54111e-07
3.01797e-07
2.56963e-07
2.18578e-07
1.85748e-07
1.57697e-07
1.33753e-07
1.13335e-07
9.59418e-08
8.11395e-08
6.8555e-08
5.78666e-08
4.87976e-08
4.11104e-08
3.46009e-08
2.90942e-08
2.44404e-08
2.05113e-08
1.71973e-08
1.4405e-08
1.20545e-08
1.00778e-08
8.41729e-09
7.02362e-09
5.85511e-09
4.87634e-09
4.05732e-09
3.37264e-09
2.80083e-09
2.32375e-09
1.9261e-09
1.59499e-09
1.31954e-09
1.09062e-09
9.00565e-10
7.42924e-10
6.12298e-10
5.04162e-10
4.14732e-10
3.40843e-10
2.79854e-10
2.29562e-10
1.88131e-10
1.54032e-10
1.25996e-10
1.02965e-10
8.40659e-11
6.85712e-11
5.58802e-11
4.54954e-11
3.7006e-11
3.00727e-11
2.44156e-11
1.98042e-11
1.60489e-11
1.29936e-11
1.05102e-11
8.49361e-12
6.85757e-12
5.53156e-12
4.45783e-12
3.58922e-12
2.88719e-12
2.32035e-12
1.86308e-12
1.49455e-12
1.19783e-12
9.59133e-13
7.67304e-13
6.13281e-13
4.89729e-13
3.90713e-13
3.11433e-13
2.48015e-13
1.97332e-13
1.56864e-13
1.24582e-13
9.88549e-14
7.83698e-14
6.20738e-14
4.91222e-14
3.8838e-14
3.06794e-14
2.4213e-14
1.90925e-14
1.50414e-14
1.18394e-14
9.31066e-15
7.31556e-15
5.74287e-15
4.50428e-15
3.52971e-15
2.76355e-15
2.16179e-15
1.68958e-15
1.31935e-15
1.02934e-15
8.0238e-16
6.24914e-16
4.86273e-16
3.78061e-16
2.93674e-16
2.27924e-16
1.76742e-16
1.36934e-16
1.06e-16
8.19835e-17
6.33537e-17
4.89152e-17
3.77347e-17
2.90848e-17
2.23985e-17
1.72345e-17
1.32498e-17
1.01777e-17
7.81118e-18
5.98985e-18
4.58931e-18
3.51326e-18
2.68723e-18
2.05368e-18
1.56818e-18
1.19644e-18
9.12056e-19
6.94685e-19
5.28677e-19
4.02003e-19
3.05426e-19
2.31857e-19
1.75863e-19
1.3328e-19
1.00925e-19
7.63607e-20
5.77276e-20
4.36052e-20
3.29106e-20
2.48185e-20
1.87007e-20
1.40795e-20
1.05915e-20
7.96115e-21
5.97914e-21
4.48693e-21
3.36439e-21
2.52064e-21
1.88697e-21
1.41145e-21
1.05492e-21
7.87807e-22
5.87858e-22
4.38306e-22
3.26538e-22
2.43076e-22
1.80803e-22
1.34376e-22
9.97912e-23
7.40488e-23
5.49035e-23
4.0676e-23
3.01116e-23
2.22734e-23
1.64626e-23
1.21581e-23
8.97215e-24
6.61585e-24
4.87457e-24
3.58878e-24
2.6401e-24
1.94069e-24
1.42546e-24
1.04621e-24
7.67265e-25
5.6226e-25
4.11713e-25
3.01244e-25
2.20247e-25
1.60904e-25
1.17461e-25
8.56817e-26
6.24528e-26
4.54869e-26
3.31047e-26
2.4075e-26
1.74949e-26
1.27037e-26
9.21773e-27
6.68327e-27
4.84205e-27
3.50545e-27
2.5359e-27
1.83315e-27
1.32416e-27
9.55783e-28
6.89376e-28
4.96857e-28
3.57837e-28
2.57524e-28
1.85196e-28
1.33084e-28
9.55656e-29
6.85739e-29
4.91698e-29
3.52307e-29
2.52248e-29
1.80475e-29
1.29031e-29
9.21838e-30
6.58114e-30
4.69499e-30
3.347e-30
2.38432e-30
1.69731e-30
1.20739e-30
8.58265e-31
6.09659e-31
4.32756e-31
3.06966e-31
2.17585e-31
1.54121e-31
1.0909e-31
7.7162e-32
5.45401e-32
3.85233e-32
2.71911e-32
1.9179e-32
1.35184e-32
9.52195e-33
6.70249e-33
4.71487e-33
3.31482e-33
2.32959e-33
1.63714e-33
1.15142e-33
8.11893e-34
5.76185e-34
4.1492e-34
3.08152e-34
2.4294e-34
2.11798e-34
0.781555
0.744278
0.709205
0.6761
0.644809
0.615258
0.587333
0.560893
0.535801
0.511933
0.489181
0.467453
0.446668
0.426759
0.407672
0.389356
0.371772
0.354882
0.338655
0.323064
0.308083
0.29369
0.279862
0.26658
0.253826
0.241581
0.229829
0.218554
0.20774
0.197371
0.187434
0.177914
0.168797
0.16007
0.15172
0.143734
0.136099
0.128803
0.121835
0.115183
0.108835
0.102781
0.0970109
0.0915131
0.0862778
0.0812953
0.0765558
0.07205
0.0677689
0.0637035
0.0598453
0.0561858
0.0527169
0.0494308
0.0463197
0.0433761
0.0405929
0.037963
0.0354797
0.0331362
0.0309263
0.0288438
0.0268826
0.0250371
0.0233017
0.0216709
0.0201396
0.0187028
0.0173557
0.0160936
0.0149121
0.0138068
0.0127737
0.0118088
0.0109083
0.0100687
0.00928631
0.00855798
0.00788048
0.0072508
0.00666605
0.00612348
0.00562047
0.00515454
0.00472333
0.0043246
0.00395621
0.00361617
0.00330256
0.00301359
0.00274756
0.00250287
0.002278
0.00207155
0.00188217
0.00170862
0.0015497
0.00140434
0.00127148
0.00115018
0.00103952
0.000938672
0.000846848
0.000763321
0.000687413
0.000618494
0.00055598
0.00049933
0.000448044
0.000401658
0.000359744
0.000321908
0.000287787
0.000257044
0.000229373
0.000204491
0.000182139
0.000162079
0.000144094
0.000127985
0.00011357
0.000100684
8.91762e-05
7.89095e-05
6.97589e-05
6.16112e-05
5.43637e-05
4.79233e-05
4.22058e-05
3.71351e-05
3.26426e-05
2.86663e-05
2.51504e-05
2.20446e-05
1.93039e-05
1.68878e-05
1.476e-05
1.28879e-05
1.12425e-05
9.79779e-06
8.53051e-06
7.42002e-06
6.44789e-06
5.59773e-06
4.855e-06
4.20677e-06
3.64157e-06
3.14928e-06
2.72092e-06
2.34855e-06
2.02519e-06
1.74467e-06
1.50156e-06
1.29108e-06
1.10903e-06
9.51729e-07
8.15953e-07
6.98872e-07
5.98014e-07
5.11217e-07
4.36597e-07
3.72509e-07
3.17521e-07
2.7039e-07
2.30033e-07
1.9551e-07
1.66008e-07
1.40823e-07
1.19343e-07
1.01042e-07
8.5465e-08
7.22199e-08
6.09688e-08
5.1421e-08
4.33267e-08
3.64715e-08
3.06715e-08
2.5769e-08
2.16294e-08
1.81374e-08
1.51946e-08
1.2717e-08
1.06333e-08
8.88248e-09
7.41285e-09
6.18046e-09
5.14804e-09
4.28399e-09
3.56157e-09
2.95815e-09
2.45462e-09
2.03487e-09
1.68529e-09
1.39445e-09
1.1527e-09
9.5196e-10
7.85434e-10
6.47425e-10
5.33161e-10
4.38649e-10
3.6055e-10
2.96077e-10
2.42904e-10
1.99093e-10
1.6303e-10
1.33374e-10
1.09011e-10
8.90143e-11
7.26178e-11
5.91861e-11
4.81937e-11
3.92063e-11
3.18652e-11
2.58746e-11
2.09906e-11
1.70127e-11
1.37759e-11
1.11445e-11
9.00744e-12
7.27344e-12
5.86783e-12
4.72949e-12
3.80847e-12
3.06399e-12
2.46277e-12
1.97771e-12
1.58673e-12
1.27188e-12
1.01857e-12
8.14966e-13
6.51466e-13
5.20293e-13
4.15154e-13
3.3096e-13
2.63602e-13
2.09762e-13
1.66768e-13
1.32467e-13
1.05125e-13
8.33523e-14
6.60293e-14
5.22595e-14
4.13241e-14
3.26477e-14
2.577e-14
2.03229e-14
1.6013e-14
1.26058e-14
9.91473e-15
7.79124e-15
6.11711e-15
4.79846e-15
3.76074e-15
2.94483e-15
2.30391e-15
1.80089e-15
1.40646e-15
1.09745e-15
8.55588e-16
6.66442e-16
5.18658e-16
4.03293e-16
3.13315e-16
2.43201e-16
1.88613e-16
1.4615e-16
1.1315e-16
8.75248e-17
6.76447e-17
5.22351e-17
4.03012e-17
3.1067e-17
2.39282e-17
1.8414e-17
1.41584e-17
1.0877e-17
8.34902e-18
6.40312e-18
4.90658e-18
3.75663e-18
2.87376e-18
2.19652e-18
1.67746e-18
1.27999e-18
9.75871e-19
7.43387e-19
5.65814e-19
4.30297e-19
3.26965e-19
2.4824e-19
1.88313e-19
1.42734e-19
1.08097e-19
8.17981e-20
6.18461e-20
4.67221e-20
3.52675e-20
2.65993e-20
2.00451e-20
1.50935e-20
1.13558e-20
8.53671e-21
6.41223e-21
4.81253e-21
3.60899e-21
2.70424e-21
2.02466e-21
1.51464e-21
1.13218e-21
8.45613e-22
6.31072e-22
4.70584e-22
3.50629e-22
2.61042e-22
1.9419e-22
1.44344e-22
1.07207e-22
7.95613e-23
5.8998e-23
4.37149e-23
3.23652e-23
2.39433e-23
1.7699e-23
1.30729e-23
9.64838e-24
7.11536e-24
5.24324e-24
3.86068e-24
2.84047e-24
2.08823e-24
1.53402e-24
1.12602e-24
8.25897e-25
6.053e-25
4.43282e-25
3.24382e-25
2.37192e-25
1.73304e-25
1.26528e-25
9.2307e-26
6.729e-26
4.90158e-26
3.56773e-26
2.59489e-26
1.8859e-26
1.36958e-26
9.93876e-27
7.20691e-27
5.22204e-27
3.78099e-27
2.73556e-27
1.97771e-27
1.42875e-27
1.0314e-27
7.44002e-28
5.3629e-28
3.86282e-28
2.78028e-28
1.99964e-28
1.43713e-28
1.0321e-28
7.4068e-29
5.31154e-29
3.80622e-29
2.72553e-29
1.95025e-29
1.39449e-29
9.96385e-30
7.11416e-30
5.07583e-30
3.61891e-30
2.57831e-30
1.83561e-30
1.30592e-30
9.28413e-31
6.59562e-31
4.68232e-31
3.32168e-31
2.35476e-31
1.66812e-31
1.18086e-31
8.35347e-32
5.90511e-32
4.17142e-32
2.94467e-32
2.07723e-32
1.4643e-32
1.03152e-32
7.26166e-33
5.10874e-33
3.59206e-33
2.5246e-33
1.77422e-33
1.24772e-33
8.79537e-34
6.23754e-34
4.48537e-34
3.32274e-34
2.60994e-34
2.26741e-34
0.783885
0.750751
0.718267
0.686916
0.656848
0.62809
0.600622
0.57439
0.549325
0.525351
0.502397
0.480398
0.459293
0.439032
0.419567
0.400861
0.382877
0.365585
0.348957
0.332968
0.317594
0.302814
0.288609
0.274959
0.261846
0.249253
0.237163
0.22556
0.214429
0.203755
0.193522
0.183717
0.174325
0.165333
0.156728
0.148496
0.140625
0.133103
0.125918
0.119057
0.112509
0.106264
0.10031
0.0946364
0.089233
0.0840898
0.0791969
0.0745446
0.0701236
0.0659249
0.0619396
0.0581591
0.054575
0.0511793
0.047964
0.0449215
0.0420443
0.0393253
0.0367574
0.0343338
0.0320481
0.0298938
0.0278649
0.0259553
0.0241593
0.0224714
0.0208863
0.0193988
0.0180039
0.0166969
0.0154732
0.0143282
0.0132579
0.0122581
0.0113249
0.0104547
0.00964366
0.00888854
0.00818603
0.007533
0.00692647
0.00636362
0.00584172
0.00535823
0.00491069
0.0044968
0.00411435
0.00376127
0.00343558
0.00313544
0.00285908
0.00260485
0.00237118
0.00215661
0.00195975
0.00177931
0.00161407
0.00146289
0.0013247
0.00119851
0.00108337
0.000978418
0.000882845
0.000795892
0.000716858
0.000645088
0.000579979
0.000520967
0.000467533
0.000419196
0.000375513
0.000336072
0.000300497
0.000268441
0.000239582
0.000213627
0.000190307
0.000169375
0.000150605
0.00013379
0.00011874
0.000105285
9.3267e-05
8.25428e-05
7.2983e-05
6.44694e-05
5.68951e-05
5.01631e-05
4.41857e-05
3.88837e-05
3.41853e-05
3.00261e-05
2.63478e-05
2.3098e-05
2.02298e-05
1.77008e-05
1.54731e-05
1.35129e-05
1.17896e-05
1.02763e-05
8.94865e-06
7.78504e-06
6.76623e-06
5.87509e-06
5.09642e-06
4.4167e-06
3.82394e-06
3.30756e-06
2.85815e-06
2.46742e-06
2.12806e-06
1.8336e-06
1.57836e-06
1.35734e-06
1.16615e-06
1.00092e-06
8.58269e-07
7.35241e-07
6.29241e-07
5.38003e-07
4.59551e-07
3.9216e-07
3.34329e-07
2.84751e-07
2.42291e-07
2.05964e-07
1.74914e-07
1.48403e-07
1.25788e-07
1.06517e-07
9.01111e-08
7.61589e-08
6.43051e-08
5.4244e-08
4.57131e-08
3.84868e-08
3.23718e-08
2.72022e-08
2.28362e-08
1.91526e-08
1.60478e-08
1.34334e-08
1.12342e-08
9.38599e-09
7.83438e-09
6.53301e-09
5.44262e-09
4.52989e-09
3.76663e-09
3.129e-09
2.59683e-09
2.15312e-09
1.78353e-09
1.47598e-09
1.2203e-09
1.00796e-09
8.31774e-10
6.85737e-10
5.64806e-10
4.64762e-10
3.82078e-10
3.13808e-10
2.57493e-10
2.11086e-10
1.7288e-10
1.41456e-10
1.15635e-10
9.44391e-11
7.70561e-11
6.2814e-11
5.11563e-11
4.16233e-11
3.38352e-11
2.74787e-11
2.22957e-11
1.80734e-11
1.46372e-11
1.18433e-11
9.57377e-12
7.73202e-12
6.23881e-12
5.02932e-12
4.05058e-12
3.2593e-12
2.62019e-12
2.10447e-12
1.6887e-12
1.35384e-12
1.08438e-12
8.67764e-13
6.93784e-13
5.54181e-13
4.42265e-13
3.5263e-13
2.80907e-13
2.23569e-13
1.77774e-13
1.41231e-13
1.12099e-13
8.88958e-14
7.0432e-14
5.5753e-14
4.40937e-14
3.48414e-14
2.75059e-14
2.16954e-14
1.7097e-14
1.34613e-14
1.05893e-14
8.32268e-15
6.5354e-15
5.12739e-15
4.01917e-15
3.14769e-15
2.46301e-15
1.92555e-15
1.50406e-15
1.17379e-15
9.15245e-16
7.13023e-16
5.54996e-16
4.31616e-16
3.35371e-16
2.60361e-16
2.01953e-16
1.56512e-16
1.2119e-16
9.3759e-17
7.24742e-17
5.59731e-17
4.31918e-17
3.33005e-17
2.56523e-17
1.97438e-17
1.51832e-17
1.16661e-17
8.9561e-18
6.86976e-18
5.26496e-18
4.03163e-18
3.0846e-18
2.35803e-18
1.80108e-18
1.37452e-18
1.0481e-18
7.98532e-19
6.07878e-19
4.62356e-19
3.51378e-19
2.66815e-19
2.02434e-19
1.53461e-19
1.16238e-19
8.79715e-20
6.65236e-20
5.02632e-20
3.79461e-20
2.86238e-20
2.1574e-20
1.62471e-20
1.22255e-20
9.19189e-21
6.90537e-21
5.18341e-21
3.88768e-21
2.91349e-21
2.18165e-21
1.63232e-21
1.22032e-21
9.1158e-22
6.80401e-22
5.07443e-22
3.78147e-22
2.8157e-22
2.09491e-22
1.55739e-22
1.15687e-22
8.58674e-23
6.36834e-23
4.71933e-23
3.49455e-23
2.58559e-23
1.91155e-23
1.41212e-23
1.04235e-23
7.68811e-24
5.6661e-24
4.17263e-24
3.07042e-24
2.25761e-24
1.65867e-24
1.21769e-24
8.93261e-25
6.54763e-25
4.79573e-25
3.50988e-25
2.56682e-25
1.87571e-25
1.36964e-25
9.99338e-26
7.28599e-26
5.30804e-26
3.86412e-26
2.81085e-26
2.04313e-26
1.48398e-26
1.07704e-26
7.811e-27
5.66053e-27
4.09904e-27
2.96608e-27
2.14466e-27
1.54957e-27
1.11877e-27
8.07135e-28
5.81877e-28
4.19174e-28
3.01743e-28
2.1705e-28
1.56014e-28
1.12059e-28
8.04291e-29
5.76848e-29
4.13421e-29
2.96079e-29
2.11888e-29
1.51527e-29
1.08282e-29
7.73236e-30
5.51763e-30
3.93442e-30
2.80347e-30
1.99618e-30
1.42034e-30
1.00989e-30
7.17539e-31
5.09457e-31
3.61461e-31
2.56275e-31
1.8157e-31
1.2855e-31
9.09488e-32
6.43006e-32
4.54284e-32
3.20727e-32
2.26276e-32
1.5953e-32
1.12395e-32
7.91326e-33
5.56782e-33
3.91527e-33
2.75198e-33
1.93407e-33
1.36003e-33
9.58425e-34
6.79214e-34
4.87701e-34
3.60342e-34
2.81969e-34
2.44084e-34
0.785247
0.75508
0.724936
0.695342
0.66658
0.638757
0.611917
0.586067
0.561191
0.537257
0.514229
0.49207
0.470741
0.450209
0.430441
0.411407
0.393081
0.375438
0.358455
0.34211
0.326384
0.311256
0.296708
0.282722
0.269282
0.25637
0.243971
0.232068
0.220646
0.20969
0.199185
0.189117
0.179472
0.170236
0.161395
0.152937
0.144849
0.137117
0.129731
0.122677
0.115944
0.109521
0.103397
0.0975609
0.0920017
0.0867094
0.0816739
0.0768855
0.0723345
0.0680118
0.0639082
0.060015
0.0563236
0.0528256
0.0495132
0.0463783
0.0434133
0.0406109
0.037964
0.0354655
0.0331088
0.0308873
0.0287947
0.0268249
0.0249721
0.0232306
0.0215949
0.0200597
0.0186198
0.0172705
0.0160069
0.0148246
0.0137191
0.0126864
0.0117223
0.010823
0.00998486
0.00920437
0.00847813
0.00780295
0.00717575
0.00659362
0.00605377
0.00555356
0.00509047
0.00466213
0.00426627
0.00390075
0.00356354
0.00325272
0.00296649
0.00270312
0.00246103
0.00223868
0.00203465
0.00184761
0.00167629
0.00151953
0.00137621
0.00124531
0.00112586
0.00101695
0.000917766
0.000827509
0.000745457
0.000670935
0.000603316
0.000542019
0.000486506
0.00043628
0.000390881
0.000349885
0.000312901
0.000279567
0.000249554
0.000222557
0.000198296
0.000176515
0.00015698
0.000139476
0.000123809
0.000109798
9.72811e-05
8.61101e-05
7.61501e-05
6.72786e-05
5.93844e-05
5.23669e-05
4.61349e-05
4.06059e-05
3.57056e-05
3.13669e-05
2.7529e-05
2.41378e-05
2.11441e-05
1.8504e-05
1.6178e-05
1.41309e-05
1.2331e-05
1.07501e-05
9.36284e-06
8.14679e-06
7.08187e-06
6.15023e-06
5.33602e-06
4.62515e-06
4.00512e-06
3.46487e-06
2.99461e-06
2.58568e-06
2.23044e-06
1.92215e-06
1.65488e-06
1.42339e-06
1.22311e-06
1.04999e-06
9.00507e-07
7.71559e-07
6.60438e-07
5.64776e-07
4.82504e-07
4.11819e-07
3.5115e-07
2.9913e-07
2.54571e-07
2.1644e-07
1.83843e-07
1.56006e-07
1.32255e-07
1.12013e-07
9.47773e-08
8.01166e-08
6.76586e-08
5.70828e-08
4.81138e-08
4.05151e-08
3.40837e-08
2.86457e-08
2.40522e-08
2.01759e-08
1.69082e-08
1.41561e-08
1.18406e-08
9.89438e-09
8.26015e-09
6.88925e-09
5.74039e-09
4.77855e-09
3.97409e-09
3.3019e-09
2.7408e-09
2.27288e-09
1.88306e-09
1.55861e-09
1.28884e-09
1.06475e-09
8.78795e-10
7.24627e-10
5.9694e-10
4.91288e-10
4.03954e-10
3.31831e-10
2.72329e-10
2.23286e-10
1.82903e-10
1.49683e-10
1.22381e-10
9.99655e-11
8.15791e-11
6.65122e-11
5.41774e-11
4.40889e-11
3.58455e-11
2.91163e-11
2.36283e-11
1.91569e-11
1.55173e-11
1.25575e-11
1.01528e-11
8.20107e-12
6.61839e-12
5.33621e-12
4.29846e-12
3.45934e-12
2.78146e-12
2.23437e-12
1.79324e-12
1.43788e-12
1.15189e-12
9.2194e-13
7.37221e-13
5.88974e-13
4.7011e-13
3.74894e-13
2.98691e-13
2.37762e-13
1.89091e-13
1.50246e-13
1.19274e-13
9.46013e-14
7.49647e-14
5.93507e-14
4.69467e-14
3.71017e-14
2.92951e-14
2.31104e-14
1.82151e-14
1.4344e-14
1.12855e-14
8.87124e-15
6.96728e-15
5.4671e-15
4.28615e-15
3.35732e-15
2.62746e-15
2.05445e-15
1.60499e-15
1.25276e-15
9.76978e-16
7.61237e-16
5.92619e-16
4.60948e-16
3.58219e-16
2.78143e-16
2.1578e-16
1.67254e-16
1.29528e-16
1.00226e-16
7.74849e-17
5.98523e-17
4.61924e-17
3.56195e-17
2.7443e-17
2.11254e-17
1.62482e-17
1.24863e-17
9.58725e-18
7.35502e-18
5.63774e-18
4.31775e-18
3.30401e-18
2.52615e-18
1.92979e-18
1.47297e-18
1.12335e-18
8.5599e-19
6.51717e-19
4.95777e-19
3.76834e-19
2.86188e-19
2.17166e-19
1.64653e-19
1.24735e-19
9.44161e-20
7.14077e-20
5.39616e-20
4.07444e-20
3.07392e-20
2.31718e-20
1.74531e-20
1.31349e-20
9.8771e-21
7.42123e-21
5.57146e-21
4.17935e-21
3.13254e-21
2.34602e-21
1.75556e-21
1.31265e-21
9.80694e-22
7.32095e-22
5.46076e-22
4.06996e-22
3.03095e-22
2.25539e-22
1.67694e-22
1.24586e-22
9.24855e-23
6.86017e-23
5.08454e-23
3.76552e-23
2.78648e-23
2.06037e-23
1.52227e-23
1.12383e-23
8.29022e-24
6.11073e-24
4.50071e-24
3.3123e-24
2.4358e-24
1.78985e-24
1.31418e-24
9.64178e-25
7.06845e-25
5.17793e-25
3.79013e-25
2.77217e-25
2.02605e-25
1.47962e-25
1.07974e-25
7.87327e-26
5.73669e-26
4.17675e-26
3.03869e-26
2.20904e-26
1.6047e-26
1.16482e-26
8.4488e-27
6.12358e-27
4.43497e-27
3.2096e-27
2.32106e-27
1.67725e-27
1.21112e-27
8.7388e-28
6.3008e-28
4.53961e-28
3.26828e-28
2.35126e-28
1.6903e-28
1.21424e-28
8.71627e-29
6.25226e-29
4.48153e-29
3.20996e-29
2.2975e-29
1.64323e-29
1.17442e-29
8.38757e-30
5.98597e-30
4.26894e-30
3.04224e-30
2.16648e-30
1.54171e-30
1.09633e-30
7.79062e-31
5.53211e-31
3.92556e-31
2.78358e-31
1.97241e-31
1.39664e-31
9.88244e-32
6.98776e-32
4.9375e-32
3.48635e-32
2.45998e-32
1.73456e-32
1.22222e-32
8.60622e-33
6.05611e-33
4.25909e-33
2.99391e-33
2.10418e-33
1.47956e-33
1.04239e-33
7.38248e-34
5.2939e-34
3.90219e-34
3.04295e-34
2.62544e-34
0.786197
0.758116
0.729837
0.701784
0.674243
0.647351
0.62119
0.595802
0.571207
0.547409
0.524401
0.50217
0.4807
0.459974
0.439972
0.420676
0.402069
0.384132
0.366848
0.350199
0.334168
0.318738
0.303892
0.289613
0.275886
0.262695
0.250023
0.237856
0.226177
0.214973
0.204228
0.193928
0.184059
0.174607
0.165558
0.1569
0.148618
0.140702
0.133137
0.125912
0.119015
0.112435
0.10616
0.100179
0.094481
0.0890562
0.083894
0.0789844
0.0743178
0.0698845
0.0656756
0.0616819
0.0578947
0.0543057
0.0509064
0.047689
0.0446456
0.0417688
0.0390511
0.0364856
0.0340652
0.0317835
0.0296339
0.0276103
0.0257065
0.0239168
0.0222356
0.0206575
0.0191773
0.0177899
0.0164905
0.0152745
0.0141374
0.0130749
0.0120829
0.0111575
0.0102948
0.00949143
0.00874376
0.00804855
0.00740265
0.00680306
0.00624695
0.00573159
0.00525442
0.00481298
0.00440495
0.00402813
0.00368044
0.00335992
0.0030647
0.00279304
0.00254326
0.00231383
0.00210327
0.00191021
0.00173335
0.00157149
0.00142348
0.00128828
0.00116488
0.00105237
0.000949873
0.000856591
0.000771775
0.000694729
0.000624809
0.000561416
0.000503996
0.000452035
0.000405061
0.000362635
0.000324354
0.000289846
0.000258771
0.000230813
0.000205684
0.000183121
0.000162881
0.000144743
0.000128504
0.00011398
0.000101003
8.94191e-05
7.90891e-05
6.98865e-05
6.16963e-05
5.44144e-05
4.79465e-05
4.22073e-05
3.71198e-05
3.26145e-05
2.86287e-05
2.5106e-05
2.19958e-05
1.92525e-05
1.68352e-05
1.47074e-05
1.28362e-05
1.11923e-05
9.74957e-06
8.48467e-06
7.3768e-06
6.40742e-06
5.56007e-06
4.82014e-06
4.17466e-06
3.61213e-06
3.1224e-06
2.69646e-06
2.32638e-06
2.00516e-06
1.72663e-06
1.48535e-06
1.27656e-06
1.09606e-06
9.40168e-07
8.05673e-07
6.89752e-07
5.89941e-07
5.04086e-07
4.3031e-07
3.66977e-07
3.12664e-07
2.66132e-07
2.26307e-07
1.92256e-07
1.63171e-07
1.38352e-07
1.17196e-07
9.9179e-08
8.38511e-08
7.08239e-08
5.97631e-08
5.03812e-08
4.24313e-08
3.57015e-08
3.00103e-08
2.52021e-08
2.1144e-08
1.77223e-08
1.48401e-08
1.24147e-08
1.03758e-08
8.66349e-09
7.22682e-09
6.02264e-09
5.01432e-09
4.17083e-09
3.46593e-09
2.87742e-09
2.38656e-09
1.97756e-09
1.63709e-09
1.35396e-09
1.11873e-09
9.2349e-10
7.61603e-10
6.27501e-10
5.16522e-10
4.2477e-10
3.48987e-10
2.86454e-10
2.34904e-10
1.92451e-10
1.57521e-10
1.2881e-10
1.05234e-10
8.58921e-11
7.00397e-11
5.70597e-11
4.64418e-11
3.77644e-11
3.06798e-11
2.4901e-11
2.0192e-11
1.63582e-11
1.32401e-11
1.07064e-11
8.64958e-12
6.98143e-12
5.62979e-12
4.53565e-12
3.6508e-12
2.93586e-12
2.35876e-12
1.89337e-12
1.5184e-12
1.21658e-12
9.73868e-13
7.78864e-13
6.22339e-13
4.96818e-13
3.96253e-13
3.15757e-13
2.51385e-13
1.99955e-13
1.58903e-13
1.26166e-13
1.00083e-13
7.93202e-14
6.28085e-14
4.96893e-14
3.92752e-14
3.10159e-14
2.44716e-14
1.92909e-14
1.51934e-14
1.19556e-14
9.39938e-15
7.38317e-15
5.79431e-15
4.54335e-15
3.55932e-15
2.78595e-15
2.1787e-15
1.70232e-15
1.32893e-15
1.03653e-15
8.07754e-16
6.28924e-16
4.89258e-16
3.80276e-16
2.95313e-16
2.29133e-16
1.7763e-16
1.37584e-16
1.06474e-16
8.23279e-17
6.36024e-17
4.90938e-17
3.78622e-17
2.91751e-17
2.2462e-17
1.72787e-17
1.32801e-17
1.01982e-17
7.82486e-18
5.99873e-18
4.59488e-18
3.51658e-18
2.68905e-18
2.05453e-18
1.5684e-18
1.1963e-18
9.11706e-19
6.94234e-19
5.28195e-19
4.01531e-19
3.04987e-19
2.31463e-19
1.75518e-19
1.32984e-19
1.00674e-19
7.61513e-20
5.75543e-20
4.34631e-20
3.27948e-20
2.47248e-20
1.86254e-20
1.40191e-20
1.05434e-20
7.92297e-21
5.94895e-21
4.46313e-21
3.34569e-21
2.506e-21
1.87553e-21
1.40254e-21
1.04799e-21
7.82441e-22
5.83708e-22
4.35102e-22
3.2407e-22
2.41179e-22
1.79347e-22
1.33261e-22
9.89386e-23
7.33981e-23
5.44076e-23
4.02987e-23
2.98249e-23
2.20559e-23
1.62979e-23
1.20336e-23
8.87806e-24
6.54488e-24
4.82111e-24
3.54857e-24
2.60989e-24
1.91802e-24
1.40847e-24
1.03349e-24
7.57757e-25
5.5516e-25
4.06418e-25
2.97299e-25
2.17311e-25
1.58722e-25
1.1584e-25
8.44798e-26
6.15623e-26
4.48277e-26
3.26174e-26
2.3715e-26
1.72294e-26
1.2508e-26
9.0736e-27
6.57726e-27
4.76414e-27
3.44825e-27
2.49396e-27
1.80242e-27
1.30166e-27
9.3933e-28
6.77355e-28
4.88082e-28
3.51438e-28
2.52862e-28
1.81802e-28
1.30616e-28
9.37722e-29
6.7272e-29
4.82256e-29
3.45464e-29
2.47294e-29
1.76892e-29
1.26441e-29
9.03135e-30
6.4462e-30
4.59772e-30
3.27693e-30
2.3339e-30
1.66105e-30
1.18134e-30
8.39569e-31
5.96249e-31
4.23146e-31
3.00085e-31
2.12662e-31
1.50601e-31
1.06576e-31
7.53678e-32
5.32606e-32
3.76116e-32
2.6542e-32
1.87173e-32
1.31902e-32
9.28893e-33
6.53724e-33
4.59793e-33
3.23235e-33
2.27186e-33
1.5974e-33
1.12518e-33
7.96464e-34
5.70509e-34
4.19693e-34
3.26321e-34
2.80756e-34
0.786879
0.760267
0.733392
0.706577
0.680071
0.654008
0.628483
0.603556
0.57927
0.555653
0.532719
0.510477
0.488928
0.468071
0.447899
0.428404
0.409577
0.391407
0.373879
0.356982
0.340702
0.325022
0.309929
0.295408
0.281443
0.268018
0.255119
0.242731
0.230839
0.219426
0.20848
0.197986
0.187929
0.178296
0.169073
0.160246
0.151803
0.143731
0.136016
0.128647
0.121613
0.1149
0.108498
0.102395
0.0965806
0.0910442
0.0857752
0.0807636
0.0759994
0.071473
0.0671752
0.0630967
0.0592287
0.0555627
0.0520901
0.048803
0.0456933
0.0427535
0.039976
0.0373537
0.0348795
0.0325468
0.0303489
0.0282795
0.0263325
0.024502
0.0227823
0.0211678
0.0196532
0.0182335
0.0169036
0.015659
0.0144949
0.0134071
0.0123914
0.0114437
0.0105602
0.00973729
0.00897134
0.00825903
0.00759717
0.00698269
0.00641269
0.0058844
0.00539517
0.00494253
0.00452409
0.0041376
0.00378095
0.00345212
0.0031492
0.00287042
0.00261406
0.00237855
0.00216238
0.00196415
0.00178253
0.00161629
0.00146426
0.00132536
0.00119858
0.00108295
0.000977608
0.000881721
0.000794524
0.000715304
0.000643401
0.0005782
0.000519134
0.000465677
0.000417342
0.000373681
0.00033428
0.000298757
0.000266763
0.000237975
0.000212096
0.000188856
0.000168005
0.000149317
0.000132584
0.000117615
0.000104239
9.22967e-05
8.16457e-05
7.21558e-05
6.37086e-05
5.61971e-05
4.95243e-05
4.36024e-05
3.83521e-05
3.3702e-05
2.95875e-05
2.59505e-05
2.27389e-05
1.99058e-05
1.74089e-05
1.52107e-05
1.32773e-05
1.15786e-05
1.00875e-05
8.78004e-06
7.63468e-06
6.63236e-06
5.75608e-06
4.99078e-06
4.32306e-06
3.74107e-06
3.23432e-06
2.79351e-06
2.41046e-06
2.07792e-06
1.78954e-06
1.53969e-06
1.32344e-06
1.13647e-06
9.74976e-07
8.35621e-07
7.15493e-07
6.12043e-07
5.23046e-07
4.46558e-07
3.80888e-07
3.24562e-07
2.76299e-07
2.34985e-07
1.99657e-07
1.69476e-07
1.43719e-07
1.21759e-07
1.03055e-07
8.71407e-08
7.36128e-08
6.21252e-08
5.23799e-08
4.41208e-08
3.71283e-08
3.1214e-08
2.62167e-08
2.19982e-08
1.84409e-08
1.5444e-08
1.29218e-08
1.08011e-08
9.01984e-09
7.52513e-09
6.27212e-09
5.22276e-09
4.34481e-09
3.61101e-09
2.99828e-09
2.48715e-09
2.06119e-09
1.70657e-09
1.41161e-09
1.16653e-09