/*--------------------------------*- C++ -*----------------------------------*\
  =========                 |
  \\      /  F ield         | OpenFOAM: The Open Source CFD Toolbox
   \\    /   O peration     | Website:  https://openfoam.org
    \\  /    A nd           | Version:  dev
     \\/     M anipulation  |
\*---------------------------------------------------------------------------*/
FoamFile
{
    format      ascii;
    class       volScalarField;
    location    "0.88";
    object      Exp1;
}
// * * * * * * * * * * * * * * * * * * * * * * * * * * * * * * * * * * * * * //

dimensions      [0 0 0 0 0 0 0];

internalField   uniform 0;

boundaryField
{
    frontAndBack
    {
        type            empty;
    }
    inlet
    {
        type            calculated;
        value           uniform 0;
    }
    outlet
    {
        type            calculated;
        value           uniform 0;
    }
    substrate
    {
        type            calculated;
        value           nonuniform List<scalar> 
400
(
6.80203e-22
2.16648e-21
3.80164e-21
5.57884e-21
7.49926e-21
9.5696e-21
1.17964e-20
1.41864e-20
1.67475e-20
1.94878e-20
2.24162e-20
2.55422e-20
2.88752e-20
3.24253e-20
3.62027e-20
4.02178e-20
4.44813e-20
4.90039e-20
5.37966e-20
5.88706e-20
6.42373e-20
6.99083e-20
7.58952e-20
8.22102e-20
8.88654e-20
9.58733e-20
1.03247e-19
1.10999e-19
1.19142e-19
1.27691e-19
1.3666e-19
1.46062e-19
1.55912e-19
1.66224e-19
1.77016e-19
1.88301e-19
2.00095e-19
2.12417e-19
2.25281e-19
2.38705e-19
2.52708e-19
2.67306e-19
2.82519e-19
2.98365e-19
3.14864e-19
3.32036e-19
3.49902e-19
3.68482e-19
3.87799e-19
4.07873e-19
4.28729e-19
4.50389e-19
4.72877e-19
4.96218e-19
5.20438e-19
5.45561e-19
5.71615e-19
5.98628e-19
6.26627e-19
6.55641e-19
6.85701e-19
7.16836e-19
7.49077e-19
7.82459e-19
8.17012e-19
8.52773e-19
8.89775e-19
9.28054e-19
9.67649e-19
1.0086e-18
1.05094e-18
1.09471e-18
1.13996e-18
1.18672e-18
1.23504e-18
1.28497e-18
1.33656e-18
1.38984e-18
1.44487e-18
1.5017e-18
1.56039e-18
1.62098e-18
1.68353e-18
1.74809e-18
1.81474e-18
1.88352e-18
1.95449e-18
2.02773e-18
2.10329e-18
2.18125e-18
2.26167e-18
2.34463e-18
2.43019e-18
2.51843e-18
2.60944e-18
2.70328e-18
2.80005e-18
2.89982e-18
3.00269e-18
3.10874e-18
3.21807e-18
3.33076e-18
3.44693e-18
3.56666e-18
3.69006e-18
3.81723e-18
3.9483e-18
4.08336e-18
4.22253e-18
4.36594e-18
4.5137e-18
4.66594e-18
4.8228e-18
4.98439e-18
5.15086e-18
5.32236e-18
5.49902e-18
5.68099e-18
5.86843e-18
6.0615e-18
6.26035e-18
6.46516e-18
6.67609e-18
6.89333e-18
7.11705e-18
7.34743e-18
7.58468e-18
7.82899e-18
8.08056e-18
8.3396e-18
8.60633e-18
8.88096e-18
9.16373e-18
9.45486e-18
9.7546e-18
1.00632e-17
1.03809e-17
1.0708e-17
1.10447e-17
1.13913e-17
1.17481e-17
1.21154e-17
1.24934e-17
1.28826e-17
1.32832e-17
1.36955e-17
1.41199e-17
1.45567e-17
1.50063e-17
1.5469e-17
1.59452e-17
1.64353e-17
1.69397e-17
1.74588e-17
1.79929e-17
1.85427e-17
1.91084e-17
1.96905e-17
2.02895e-17
2.09059e-17
2.15401e-17
2.21927e-17
2.28642e-17
2.35551e-17
2.4266e-17
2.49974e-17
2.57499e-17
2.65242e-17
2.73207e-17
2.81401e-17
2.89832e-17
2.98505e-17
3.07427e-17
3.16605e-17
3.26046e-17
3.35759e-17
3.45749e-17
3.56026e-17
3.66596e-17
3.77469e-17
3.88653e-17
4.00155e-17
4.11986e-17
4.24154e-17
4.36669e-17
4.4954e-17
4.62777e-17
4.7639e-17
4.9039e-17
5.04787e-17
5.19593e-17
5.34817e-17
5.50473e-17
5.66572e-17
5.83126e-17
6.00148e-17
6.1765e-17
6.35645e-17
6.54148e-17
6.73171e-17
6.9273e-17
7.12839e-17
7.33512e-17
7.54766e-17
7.76615e-17
7.99077e-17
8.22167e-17
8.45903e-17
8.70303e-17
8.95383e-17
9.21164e-17
9.47663e-17
9.74899e-17
1.00289e-16
1.03167e-16
1.06124e-16
1.09163e-16
1.12287e-16
1.15497e-16
1.18795e-16
1.22185e-16
1.25669e-16
1.29249e-16
1.32927e-16
1.36707e-16
1.40591e-16
1.44581e-16
1.48681e-16
1.52894e-16
1.57222e-16
1.61668e-16
1.66236e-16
1.70929e-16
1.7575e-16
1.80702e-16
1.85789e-16
1.91015e-16
1.96382e-16
2.01895e-16
2.07558e-16
2.13374e-16
2.19348e-16
2.25483e-16
2.31783e-16
2.38254e-16
2.44899e-16
2.51722e-16
2.58729e-16
2.65924e-16
2.73312e-16
2.80898e-16
2.88687e-16
2.96683e-16
3.04894e-16
3.13323e-16
3.21976e-16
3.3086e-16
3.39979e-16
3.4934e-16
3.58949e-16
3.68813e-16
3.78937e-16
3.89328e-16
3.99993e-16
4.10938e-16
4.22171e-16
4.33699e-16
4.4553e-16
4.57669e-16
4.70127e-16
4.82909e-16
4.96025e-16
5.09482e-16
5.23289e-16
5.37454e-16
5.51986e-16
5.66895e-16
5.82188e-16
5.97877e-16
6.1397e-16
6.30476e-16
6.47407e-16
6.64772e-16
6.82582e-16
7.00847e-16
7.19578e-16
7.38787e-16
7.58485e-16
7.78683e-16
7.99393e-16
8.20627e-16
8.42399e-16
8.64719e-16
8.87602e-16
9.1106e-16
9.35107e-16
9.59756e-16
9.85022e-16
1.01092e-15
1.03746e-15
1.06466e-15
1.09254e-15
1.12111e-15
1.15038e-15
1.18038e-15
1.21111e-15
1.2426e-15
1.27486e-15
1.30791e-15
1.34176e-15
1.37644e-15
1.41197e-15
1.44835e-15
1.48561e-15
1.52377e-15
1.56285e-15
1.60287e-15
1.64384e-15
1.68579e-15
1.72874e-15
1.7727e-15
1.81771e-15
1.86377e-15
1.91092e-15
1.95917e-15
2.00855e-15
2.05908e-15
2.11077e-15
2.16366e-15
2.21776e-15
2.27311e-15
2.32971e-15
2.38759e-15
2.44679e-15
2.50731e-15
2.56918e-15
2.63244e-15
2.69708e-15
2.76315e-15
2.83066e-15
2.89964e-15
2.9701e-15
3.04207e-15
3.11557e-15
3.19061e-15
3.26722e-15
3.34542e-15
3.42522e-15
3.50663e-15
3.58968e-15
3.67437e-15
3.76072e-15
3.84873e-15
3.93842e-15
4.02979e-15
4.12285e-15
4.21759e-15
4.314e-15
4.4121e-15
4.51185e-15
4.61326e-15
4.7163e-15
4.82094e-15
4.92716e-15
5.03493e-15
5.1442e-15
5.25492e-15
5.36703e-15
5.48048e-15
5.59517e-15
5.71104e-15
5.82798e-15
5.94588e-15
6.06461e-15
6.18405e-15
6.30404e-15
6.42441e-15
6.54496e-15
6.6655e-15
6.78577e-15
6.90553e-15
7.0245e-15
7.14236e-15
7.25876e-15
7.37333e-15
7.48566e-15
7.5953e-15
7.70174e-15
7.80446e-15
7.90286e-15
7.9963e-15
8.08411e-15
8.16554e-15
8.23981e-15
8.30607e-15
8.36344e-15
8.41102e-15
8.4479e-15
8.47321e-15
8.48615e-15
)
;
    }
    Wall
    {
        type            calculated;
        value           nonuniform List<scalar> 
400
(
6.8019e-22
2.16644e-21
3.80156e-21
5.57872e-21
7.49909e-21
9.56937e-21
1.17961e-20
1.41861e-20
1.6747e-20
1.94872e-20
2.24155e-20
2.55413e-20
2.88742e-20
3.24241e-20
3.62014e-20
4.02163e-20
4.44795e-20
4.90019e-20
5.37944e-20
5.88682e-20
6.42346e-20
6.99053e-20
7.5892e-20
8.22067e-20
8.88617e-20
9.58693e-20
1.03242e-19
1.10994e-19
1.19137e-19
1.27686e-19
1.36654e-19
1.46056e-19
1.55905e-19
1.66218e-19
1.77009e-19
1.88294e-19
2.00088e-19
2.12409e-19
2.25273e-19
2.38697e-19
2.52699e-19
2.67296e-19
2.82509e-19
2.98355e-19
3.14853e-19
3.32025e-19
3.4989e-19
3.6847e-19
3.87786e-19
4.0786e-19
4.28715e-19
4.50374e-19
4.72861e-19
4.96202e-19
5.20421e-19
5.45543e-19
5.71597e-19
5.98609e-19
6.26607e-19
6.5562e-19
6.85679e-19
7.16813e-19
7.49054e-19
7.82434e-19
8.16987e-19
8.52746e-19
8.89747e-19
9.28026e-19
9.6762e-19
1.00857e-18
1.05091e-18
1.09468e-18
1.13992e-18
1.18668e-18
1.23501e-18
1.28494e-18
1.33652e-18
1.3898e-18
1.44483e-18
1.50166e-18
1.56034e-18
1.62093e-18
1.68348e-18
1.74804e-18
1.81469e-18
1.88346e-18
1.95444e-18
2.02767e-18
2.10323e-18
2.18119e-18
2.26161e-18
2.34456e-18
2.43012e-18
2.51836e-18
2.60936e-18
2.70321e-18
2.79997e-18
2.89974e-18
3.00261e-18
3.10865e-18
3.21798e-18
3.33067e-18
3.44683e-18
3.56656e-18
3.68995e-18
3.81713e-18
3.94819e-18
4.08324e-18
4.22242e-18
4.36582e-18
4.51358e-18
4.66581e-18
4.82266e-18
4.98425e-18
5.15072e-18
5.32221e-18
5.49887e-18
5.68084e-18
5.86827e-18
6.06133e-18
6.26018e-18
6.46499e-18
6.67591e-18
6.89314e-18
7.11685e-18
7.34724e-18
7.58448e-18
7.82878e-18
8.08035e-18
8.33938e-18
8.6061e-18
8.88072e-18
9.16348e-18
9.45461e-18
9.75434e-18
1.00629e-17
1.03806e-17
1.07077e-17
1.10444e-17
1.1391e-17
1.17478e-17
1.2115e-17
1.24931e-17
1.28823e-17
1.32828e-17
1.36952e-17
1.41195e-17
1.45563e-17
1.50059e-17
1.54686e-17
1.59448e-17
1.64349e-17
1.69392e-17
1.74583e-17
1.79925e-17
1.85422e-17
1.91079e-17
1.969e-17
2.0289e-17
2.09053e-17
2.15396e-17
2.21921e-17
2.28636e-17
2.35545e-17
2.42654e-17
2.49968e-17
2.57493e-17
2.65235e-17
2.732e-17
2.81394e-17
2.89824e-17
2.98497e-17
3.07419e-17
3.16596e-17
3.26038e-17
3.3575e-17
3.4574e-17
3.56016e-17
3.66587e-17
3.77459e-17
3.88642e-17
4.00145e-17
4.11975e-17
4.24143e-17
4.36658e-17
4.49528e-17
4.62765e-17
4.76378e-17
4.90377e-17
5.04774e-17
5.19579e-17
5.34803e-17
5.50459e-17
5.66557e-17
5.83111e-17
6.00132e-17
6.17634e-17
6.35629e-17
6.54131e-17
6.73154e-17
6.92712e-17
7.1282e-17
7.33493e-17
7.54746e-17
7.76595e-17
7.99056e-17
8.22146e-17
8.45881e-17
8.7028e-17
8.9536e-17
9.2114e-17
9.47638e-17
9.74874e-17
1.00287e-16
1.03164e-16
1.06121e-16
1.0916e-16
1.12284e-16
1.15494e-16
1.18792e-16
1.22182e-16
1.25666e-16
1.29245e-16
1.32924e-16
1.36703e-16
1.40587e-16
1.44577e-16
1.48677e-16
1.5289e-16
1.57218e-16
1.61664e-16
1.66232e-16
1.70924e-16
1.75745e-16
1.80697e-16
1.85784e-16
1.9101e-16
1.96377e-16
2.0189e-16
2.07553e-16
2.13369e-16
2.19342e-16
2.25477e-16
2.31777e-16
2.38248e-16
2.44892e-16
2.51716e-16
2.58722e-16
2.65917e-16
2.73305e-16
2.80891e-16
2.88679e-16
2.96676e-16
3.04886e-16
3.13315e-16
3.21968e-16
3.30851e-16
3.3997e-16
3.49331e-16
3.5894e-16
3.68803e-16
3.78927e-16
3.89318e-16
3.99982e-16
4.10928e-16
4.22161e-16
4.33688e-16
4.45518e-16
4.57658e-16
4.70115e-16
4.82897e-16
4.96012e-16
5.09469e-16
5.23275e-16
5.3744e-16
5.51972e-16
5.6688e-16
5.82174e-16
5.97862e-16
6.13954e-16
6.3046e-16
6.4739e-16
6.64755e-16
6.82564e-16
7.00829e-16
7.1956e-16
7.38768e-16
7.58465e-16
7.78662e-16
7.99372e-16
8.20606e-16
8.42377e-16
8.64697e-16
8.87579e-16
9.11037e-16
9.35083e-16
9.59732e-16
9.84997e-16
1.01089e-15
1.03743e-15
1.06463e-15
1.09251e-15
1.12108e-15
1.15035e-15
1.18034e-15
1.21108e-15
1.24257e-15
1.27483e-15
1.30787e-15
1.34173e-15
1.37641e-15
1.41193e-15
1.44831e-15
1.48557e-15
1.52373e-15
1.56281e-15
1.60283e-15
1.6438e-15
1.68575e-15
1.72869e-15
1.77266e-15
1.81766e-15
1.86373e-15
1.91088e-15
1.95913e-15
2.0085e-15
2.05903e-15
2.11072e-15
2.16361e-15
2.21771e-15
2.27305e-15
2.32965e-15
2.38754e-15
2.44673e-15
2.50725e-15
2.56912e-15
2.63237e-15
2.69702e-15
2.76309e-15
2.8306e-15
2.89957e-15
2.97003e-15
3.042e-15
3.1155e-15
3.19054e-15
3.26715e-15
3.34534e-15
3.42513e-15
3.50655e-15
3.58959e-15
3.67428e-15
3.76063e-15
3.84864e-15
3.93833e-15
4.0297e-15
4.12275e-15
4.21749e-15
4.3139e-15
4.41199e-15
4.51175e-15
4.61315e-15
4.71619e-15
4.82083e-15
4.92705e-15
5.03481e-15
5.14408e-15
5.2548e-15
5.36691e-15
5.48035e-15
5.59505e-15
5.71091e-15
5.82784e-15
5.94574e-15
6.06448e-15
6.18392e-15
6.3039e-15
6.42427e-15
6.54482e-15
6.66535e-15
6.78562e-15
6.90539e-15
7.02435e-15
7.14221e-15
7.25861e-15
7.37318e-15
7.48551e-15
7.59514e-15
7.70159e-15
7.8043e-15
7.9027e-15
7.99615e-15
8.08396e-15
8.16539e-15
8.23965e-15
8.30591e-15
8.36329e-15
8.41088e-15
8.44778e-15
8.47309e-15
8.48602e-15
)
;
    }
}


// ************************************************************************* //
