/*--------------------------------*- C++ -*----------------------------------*\
  =========                 |
  \\      /  F ield         | OpenFOAM: The Open Source CFD Toolbox
   \\    /   O peration     | Website:  https://openfoam.org
    \\  /    A nd           | Version:  dev
     \\/     M anipulation  |
\*---------------------------------------------------------------------------*/
FoamFile
{
    format      ascii;
    class       volScalarField;
    location    "0.88";
    object      N1;
}
// * * * * * * * * * * * * * * * * * * * * * * * * * * * * * * * * * * * * * //

dimensions      [0 0 0 0 0 0 0];

internalField   nonuniform List<scalar> 
8000
(
5.16442e-21
1.6453e-20
2.88764e-20
4.23826e-20
5.69812e-20
7.27232e-20
8.96584e-20
1.07839e-19
1.27325e-19
1.48178e-19
1.70468e-19
1.94266e-19
2.19645e-19
2.46682e-19
2.75455e-19
3.06044e-19
3.38531e-19
3.73e-19
4.09533e-19
4.48218e-19
4.89141e-19
5.32392e-19
5.78061e-19
6.2624e-19
6.77024e-19
7.30508e-19
7.86791e-19
8.45973e-19
9.08157e-19
9.73446e-19
1.04195e-18
1.11377e-18
1.18903e-18
1.26784e-18
1.35032e-18
1.43658e-18
1.52676e-18
1.62097e-18
1.71935e-18
1.82203e-18
1.92914e-18
2.04083e-18
2.15724e-18
2.27851e-18
2.40479e-18
2.53624e-18
2.67301e-18
2.81528e-18
2.9632e-18
3.11694e-18
3.27668e-18
3.44261e-18
3.61489e-18
3.79374e-18
3.97933e-18
4.17187e-18
4.37156e-18
4.57862e-18
4.79326e-18
5.01571e-18
5.24618e-18
5.48493e-18
5.73219e-18
5.98821e-18
6.25324e-18
6.52756e-18
6.81141e-18
7.1051e-18
7.40889e-18
7.72309e-18
8.048e-18
8.38393e-18
8.73119e-18
9.09011e-18
9.46104e-18
9.84432e-18
1.02403e-17
1.06494e-17
1.10719e-17
1.15083e-17
1.19589e-17
1.24241e-17
1.29045e-17
1.34003e-17
1.39122e-17
1.44404e-17
1.49856e-17
1.55481e-17
1.61286e-17
1.67274e-17
1.73452e-17
1.79825e-17
1.86398e-17
1.93178e-17
2.0017e-17
2.07381e-17
2.14816e-17
2.22483e-17
2.30387e-17
2.38537e-17
2.46938e-17
2.55598e-17
2.64525e-17
2.73727e-17
2.83211e-17
2.92985e-17
3.03058e-17
3.13439e-17
3.24136e-17
3.35159e-17
3.46517e-17
3.58219e-17
3.70276e-17
3.82697e-17
3.95494e-17
4.08677e-17
4.22257e-17
4.36246e-17
4.50656e-17
4.65498e-17
4.80786e-17
4.96531e-17
5.12747e-17
5.29448e-17
5.46648e-17
5.64361e-17
5.82601e-17
6.01385e-17
6.20727e-17
6.40643e-17
6.61151e-17
6.82266e-17
7.04008e-17
7.26392e-17
7.49439e-17
7.73166e-17
7.97594e-17
8.22742e-17
8.48632e-17
8.75284e-17
9.02719e-17
9.30962e-17
9.60034e-17
9.89959e-17
1.02076e-16
1.05247e-16
1.0851e-16
1.11869e-16
1.15326e-16
1.18884e-16
1.22546e-16
1.26315e-16
1.30193e-16
1.34185e-16
1.38293e-16
1.4252e-16
1.4687e-16
1.51346e-16
1.55953e-16
1.60693e-16
1.6557e-16
1.70589e-16
1.75753e-16
1.81066e-16
1.86533e-16
1.92157e-16
1.97944e-16
2.03898e-16
2.10024e-16
2.16325e-16
2.22809e-16
2.29478e-16
2.36339e-16
2.43398e-16
2.50659e-16
2.58128e-16
2.65811e-16
2.73714e-16
2.81843e-16
2.90205e-16
2.98805e-16
3.07651e-16
3.1675e-16
3.26108e-16
3.35732e-16
3.4563e-16
3.5581e-16
3.6628e-16
3.77046e-16
3.88118e-16
3.99504e-16
4.11213e-16
4.23253e-16
4.35634e-16
4.48365e-16
4.61456e-16
4.74916e-16
4.88756e-16
5.02985e-16
5.17615e-16
5.32657e-16
5.48122e-16
5.64021e-16
5.80367e-16
5.9717e-16
6.14445e-16
6.32203e-16
6.50457e-16
6.69222e-16
6.88511e-16
7.08338e-16
7.28717e-16
7.49664e-16
7.71194e-16
7.93322e-16
8.16065e-16
8.39439e-16
8.63461e-16
8.88148e-16
9.13518e-16
9.3959e-16
9.66381e-16
9.93912e-16
1.0222e-15
1.05127e-15
1.08114e-15
1.11183e-15
1.14336e-15
1.17576e-15
1.20904e-15
1.24324e-15
1.27837e-15
1.31446e-15
1.35154e-15
1.38963e-15
1.42875e-15
1.46894e-15
1.51022e-15
1.55262e-15
1.59617e-15
1.6409e-15
1.68684e-15
1.73403e-15
1.78248e-15
1.83224e-15
1.88335e-15
1.93583e-15
1.98972e-15
2.04505e-15
2.10187e-15
2.16021e-15
2.22011e-15
2.28162e-15
2.34476e-15
2.40958e-15
2.47614e-15
2.54446e-15
2.61459e-15
2.68659e-15
2.76049e-15
2.83635e-15
2.91421e-15
2.99412e-15
3.07615e-15
3.16033e-15
3.24672e-15
3.33538e-15
3.42636e-15
3.51973e-15
3.61554e-15
3.71384e-15
3.81471e-15
3.91821e-15
4.02439e-15
4.13334e-15
4.2451e-15
4.35976e-15
4.47738e-15
4.59804e-15
4.72181e-15
4.84876e-15
4.97897e-15
5.11252e-15
5.24949e-15
5.38997e-15
5.53403e-15
5.68176e-15
5.83325e-15
5.98859e-15
6.14787e-15
6.31118e-15
6.47862e-15
6.65028e-15
6.82627e-15
7.00668e-15
7.19162e-15
7.3812e-15
7.57551e-15
7.77468e-15
7.97881e-15
8.18801e-15
8.40241e-15
8.62211e-15
8.84725e-15
9.07794e-15
9.31431e-15
9.55648e-15
9.80459e-15
1.00588e-14
1.03192e-14
1.05859e-14
1.08591e-14
1.11389e-14
1.14255e-14
1.1719e-14
1.20195e-14
1.23273e-14
1.26424e-14
1.2965e-14
1.32953e-14
1.36334e-14
1.39796e-14
1.43339e-14
1.46965e-14
1.50676e-14
1.54473e-14
1.58359e-14
1.62335e-14
1.66402e-14
1.70563e-14
1.7482e-14
1.79173e-14
1.83625e-14
1.88177e-14
1.92832e-14
1.97591e-14
2.02455e-14
2.07427e-14
2.12508e-14
2.17701e-14
2.23006e-14
2.28425e-14
2.3396e-14
2.39612e-14
2.45384e-14
2.51276e-14
2.5729e-14
2.63427e-14
2.69688e-14
2.76075e-14
2.82589e-14
2.8923e-14
2.95999e-14
3.02897e-14
3.09924e-14
3.17081e-14
3.24367e-14
3.31782e-14
3.39326e-14
3.46998e-14
3.54797e-14
3.62722e-14
3.7077e-14
3.78939e-14
3.87227e-14
3.95631e-14
4.04146e-14
4.12769e-14
4.21494e-14
4.30315e-14
4.39226e-14
4.48219e-14
4.57287e-14
4.66419e-14
4.75605e-14
4.84833e-14
4.9409e-14
5.03362e-14
5.12632e-14
5.21882e-14
5.31093e-14
5.40242e-14
5.49307e-14
5.58259e-14
5.67071e-14
5.7571e-14
5.84142e-14
5.92328e-14
6.00228e-14
6.07795e-14
6.14982e-14
6.21736e-14
6.27998e-14
6.3371e-14
6.38806e-14
6.43218e-14
6.46878e-14
6.49714e-14
6.51661e-14
6.52656e-14
5.05913e-21
1.62185e-20
2.8537e-20
4.19972e-20
5.6598e-20
7.23737e-20
8.9368e-20
1.07631e-19
1.27222e-19
1.48203e-19
1.70644e-19
1.94618e-19
2.20199e-19
2.47466e-19
2.76499e-19
3.0738e-19
3.40192e-19
3.75021e-19
4.11954e-19
4.51078e-19
4.92483e-19
5.36261e-19
5.82506e-19
6.31311e-19
6.82774e-19
7.36994e-19
7.94073e-19
8.54113e-19
9.1722e-19
9.83503e-19
1.05307e-18
1.12604e-18
1.20252e-18
1.28264e-18
1.36651e-18
1.45426e-18
1.54602e-18
1.64191e-18
1.74207e-18
1.84665e-18
1.95577e-18
2.06958e-18
2.18823e-18
2.31188e-18
2.44067e-18
2.57477e-18
2.71433e-18
2.85953e-18
3.01054e-18
3.16753e-18
3.33069e-18
3.5002e-18
3.67625e-18
3.85904e-18
4.04877e-18
4.24564e-18
4.44987e-18
4.66168e-18
4.88128e-18
5.10891e-18
5.34481e-18
5.58921e-18
5.84238e-18
6.10455e-18
6.376e-18
6.657e-18
6.94783e-18
7.24877e-18
7.56012e-18
7.88217e-18
8.21525e-18
8.55968e-18
8.91577e-18
9.28387e-18
9.66433e-18
1.00575e-17
1.04638e-17
1.08835e-17
1.13171e-17
1.17649e-17
1.22274e-17
1.2705e-17
1.31981e-17
1.37073e-17
1.42328e-17
1.47753e-17
1.53351e-17
1.59129e-17
1.65091e-17
1.71243e-17
1.77589e-17
1.84137e-17
1.90891e-17
1.97857e-17
2.05043e-17
2.12453e-17
2.20094e-17
2.27974e-17
2.36099e-17
2.44476e-17
2.53112e-17
2.62015e-17
2.71193e-17
2.80654e-17
2.90405e-17
3.00456e-17
3.10814e-17
3.21489e-17
3.32489e-17
3.43825e-17
3.55506e-17
3.67542e-17
3.79943e-17
3.92719e-17
4.05882e-17
4.19443e-17
4.33412e-17
4.47803e-17
4.62627e-17
4.77896e-17
4.93623e-17
5.09822e-17
5.26507e-17
5.4369e-17
5.61387e-17
5.79612e-17
5.9838e-17
6.17708e-17
6.37611e-17
6.58105e-17
6.79208e-17
7.00937e-17
7.23311e-17
7.46347e-17
7.70064e-17
7.94483e-17
8.19623e-17
8.45504e-17
8.72149e-17
8.99579e-17
9.27816e-17
9.56884e-17
9.86806e-17
1.01761e-16
1.04931e-16
1.08194e-16
1.11553e-16
1.15011e-16
1.18569e-16
1.22231e-16
1.26001e-16
1.2988e-16
1.33872e-16
1.37981e-16
1.4221e-16
1.46561e-16
1.51039e-16
1.55647e-16
1.60389e-16
1.65269e-16
1.70289e-16
1.75456e-16
1.80772e-16
1.86241e-16
1.91869e-16
1.97659e-16
2.03617e-16
2.09746e-16
2.16052e-16
2.2254e-16
2.29214e-16
2.36081e-16
2.43145e-16
2.50411e-16
2.57886e-16
2.65576e-16
2.73486e-16
2.81623e-16
2.89992e-16
2.98601e-16
3.07455e-16
3.16563e-16
3.2593e-16
3.35565e-16
3.45474e-16
3.55665e-16
3.66146e-16
3.76925e-16
3.8801e-16
3.9941e-16
4.11133e-16
4.23189e-16
4.35585e-16
4.48333e-16
4.61441e-16
4.74919e-16
4.88778e-16
5.03028e-16
5.17679e-16
5.32743e-16
5.4823e-16
5.64154e-16
5.80524e-16
5.97354e-16
6.14656e-16
6.32443e-16
6.50727e-16
6.69524e-16
6.88845e-16
7.08706e-16
7.29121e-16
7.50105e-16
7.71674e-16
7.93843e-16
8.16628e-16
8.40046e-16
8.64114e-16
8.8885e-16
9.1427e-16
9.40394e-16
9.6724e-16
9.94828e-16
1.02318e-15
1.05231e-15
1.08224e-15
1.113e-15
1.1446e-15
1.17707e-15
1.21043e-15
1.2447e-15
1.27992e-15
1.31609e-15
1.35326e-15
1.39144e-15
1.43066e-15
1.47094e-15
1.51233e-15
1.55484e-15
1.5985e-15
1.64335e-15
1.68941e-15
1.73672e-15
1.78531e-15
1.83521e-15
1.88645e-15
1.93908e-15
1.99312e-15
2.04861e-15
2.1056e-15
2.16411e-15
2.22419e-15
2.28588e-15
2.34921e-15
2.41424e-15
2.48099e-15
2.54953e-15
2.61989e-15
2.69212e-15
2.76626e-15
2.84236e-15
2.92048e-15
3.00067e-15
3.08297e-15
3.16744e-15
3.25413e-15
3.3431e-15
3.43441e-15
3.52811e-15
3.62426e-15
3.72293e-15
3.82417e-15
3.92806e-15
4.03464e-15
4.144e-15
4.2562e-15
4.3713e-15
4.48939e-15
4.61053e-15
4.73479e-15
4.86226e-15
4.993e-15
5.12711e-15
5.26465e-15
5.40572e-15
5.5504e-15
5.69877e-15
5.85092e-15
6.00694e-15
6.16693e-15
6.33097e-15
6.49917e-15
6.67163e-15
6.84843e-15
7.02969e-15
7.21551e-15
7.40599e-15
7.60124e-15
7.80138e-15
8.00651e-15
8.21676e-15
8.43223e-15
8.65306e-15
8.87935e-15
9.11124e-15
9.34885e-15
9.59231e-15
9.84175e-15
1.00973e-14
1.03591e-14
1.06273e-14
1.0902e-14
1.11834e-14
1.14717e-14
1.17668e-14
1.20691e-14
1.23787e-14
1.26957e-14
1.30203e-14
1.33526e-14
1.36929e-14
1.40412e-14
1.43977e-14
1.47627e-14
1.51362e-14
1.55185e-14
1.59097e-14
1.63099e-14
1.67195e-14
1.71385e-14
1.75672e-14
1.80056e-14
1.84541e-14
1.89127e-14
1.93817e-14
1.98612e-14
2.03514e-14
2.08526e-14
2.13648e-14
2.18883e-14
2.24232e-14
2.29697e-14
2.35281e-14
2.40983e-14
2.46807e-14
2.52753e-14
2.58824e-14
2.6502e-14
2.71344e-14
2.77795e-14
2.84377e-14
2.91088e-14
2.97931e-14
3.04907e-14
3.12015e-14
3.19257e-14
3.26632e-14
3.34141e-14
3.41783e-14
3.49558e-14
3.57466e-14
3.65504e-14
3.73673e-14
3.81968e-14
3.9039e-14
3.98934e-14
4.07598e-14
4.16377e-14
4.25267e-14
4.34264e-14
4.4336e-14
4.5255e-14
4.61825e-14
4.71178e-14
4.80598e-14
4.90075e-14
4.99597e-14
5.0915e-14
5.18719e-14
5.28287e-14
5.37837e-14
5.47348e-14
5.56798e-14
5.66162e-14
5.75413e-14
5.84521e-14
5.93454e-14
6.02176e-14
6.10648e-14
6.18828e-14
6.26669e-14
6.3412e-14
6.41128e-14
6.47634e-14
6.53575e-14
6.58883e-14
6.63488e-14
6.67317e-14
6.70294e-14
6.72346e-14
6.73402e-14
4.96441e-21
1.59269e-20
2.80169e-20
4.12701e-20
5.57062e-20
7.13535e-20
8.82502e-20
1.06443e-19
1.25988e-19
1.46947e-19
1.69388e-19
1.93383e-19
2.19009e-19
2.46343e-19
2.75468e-19
3.06466e-19
3.39422e-19
3.74423e-19
4.11556e-19
4.50912e-19
4.92582e-19
5.3666e-19
5.83241e-19
6.32422e-19
6.84302e-19
7.38983e-19
7.96569e-19
8.57164e-19
9.20879e-19
9.87823e-19
1.05811e-18
1.13186e-18
1.20918e-18
1.2902e-18
1.37505e-18
1.46385e-18
1.55674e-18
1.65384e-18
1.75529e-18
1.86125e-18
1.97184e-18
2.08721e-18
2.20753e-18
2.33294e-18
2.46361e-18
2.59969e-18
2.74136e-18
2.88878e-18
3.04214e-18
3.20161e-18
3.36739e-18
3.53965e-18
3.7186e-18
3.90444e-18
4.09737e-18
4.29761e-18
4.50537e-18
4.72088e-18
4.94436e-18
5.17606e-18
5.41621e-18
5.66507e-18
5.92289e-18
6.18993e-18
6.46646e-18
6.75276e-18
7.04912e-18
7.35584e-18
7.6732e-18
8.00153e-18
8.34113e-18
8.69235e-18
9.05552e-18
9.43098e-18
9.81909e-18
1.02202e-17
1.06348e-17
1.10631e-17
1.15056e-17
1.19627e-17
1.24348e-17
1.29223e-17
1.34258e-17
1.39456e-17
1.44823e-17
1.50363e-17
1.56081e-17
1.61982e-17
1.68072e-17
1.74356e-17
1.80841e-17
1.8753e-17
1.94431e-17
2.0155e-17
2.08892e-17
2.16465e-17
2.24275e-17
2.32329e-17
2.40634e-17
2.49197e-17
2.58025e-17
2.67127e-17
2.7651e-17
2.86183e-17
2.96153e-17
3.06429e-17
3.17021e-17
3.27937e-17
3.39186e-17
3.50779e-17
3.62725e-17
3.75034e-17
3.87717e-17
4.00785e-17
4.14249e-17
4.2812e-17
4.42409e-17
4.5713e-17
4.72294e-17
4.87914e-17
5.04003e-17
5.20576e-17
5.37645e-17
5.55225e-17
5.73331e-17
5.91978e-17
6.11181e-17
6.30957e-17
6.51321e-17
6.72292e-17
6.93885e-17
7.1612e-17
7.39014e-17
7.62587e-17
7.86857e-17
8.11846e-17
8.37572e-17
8.64059e-17
8.91327e-17
9.19398e-17
9.48296e-17
9.78045e-17
1.00867e-16
1.04019e-16
1.07264e-16
1.10604e-16
1.14042e-16
1.1758e-16
1.21222e-16
1.24971e-16
1.28829e-16
1.32799e-16
1.36886e-16
1.41092e-16
1.4542e-16
1.49874e-16
1.54457e-16
1.59174e-16
1.64028e-16
1.69023e-16
1.74162e-16
1.79451e-16
1.84892e-16
1.90491e-16
1.96252e-16
2.0218e-16
2.08278e-16
2.14553e-16
2.21008e-16
2.27649e-16
2.34482e-16
2.41511e-16
2.48743e-16
2.56182e-16
2.63834e-16
2.71706e-16
2.79804e-16
2.88134e-16
2.96702e-16
3.05515e-16
3.1458e-16
3.23904e-16
3.33494e-16
3.43358e-16
3.53503e-16
3.63936e-16
3.74667e-16
3.85702e-16
3.97051e-16
4.08723e-16
4.20725e-16
4.33068e-16
4.4576e-16
4.58811e-16
4.72232e-16
4.86031e-16
5.00221e-16
5.1481e-16
5.29811e-16
5.45234e-16
5.61092e-16
5.77395e-16
5.94156e-16
6.11388e-16
6.29103e-16
6.47315e-16
6.66037e-16
6.85282e-16
7.05065e-16
7.25401e-16
7.46305e-16
7.67791e-16
7.89875e-16
8.12575e-16
8.35905e-16
8.59884e-16
8.84528e-16
9.09855e-16
9.35885e-16
9.62634e-16
9.90123e-16
1.01837e-15
1.0474e-15
1.07723e-15
1.10788e-15
1.13937e-15
1.17173e-15
1.20498e-15
1.23914e-15
1.27424e-15
1.3103e-15
1.34734e-15
1.3854e-15
1.4245e-15
1.46466e-15
1.50591e-15
1.54829e-15
1.59182e-15
1.63654e-15
1.68246e-15
1.72963e-15
1.77808e-15
1.82784e-15
1.87894e-15
1.93141e-15
1.98531e-15
2.04065e-15
2.09748e-15
2.15584e-15
2.21576e-15
2.27729e-15
2.34046e-15
2.40532e-15
2.47191e-15
2.54028e-15
2.61047e-15
2.68253e-15
2.7565e-15
2.83243e-15
2.91037e-15
2.99038e-15
3.0725e-15
3.15679e-15
3.2433e-15
3.33209e-15
3.42321e-15
3.51672e-15
3.61269e-15
3.71117e-15
3.81222e-15
3.91591e-15
4.02231e-15
4.13148e-15
4.24348e-15
4.3584e-15
4.47629e-15
4.59724e-15
4.72131e-15
4.84859e-15
4.97914e-15
5.11306e-15
5.25042e-15
5.3913e-15
5.53579e-15
5.68398e-15
5.83595e-15
5.9918e-15
6.15161e-15
6.31549e-15
6.48352e-15
6.65581e-15
6.83245e-15
7.01356e-15
7.19923e-15
7.38956e-15
7.58468e-15
7.78469e-15
7.9897e-15
8.19983e-15
8.4152e-15
8.63593e-15
8.86214e-15
9.09395e-15
9.3315e-15
9.5749e-15
9.82431e-15
1.00798e-14
1.03416e-14
1.06098e-14
1.08846e-14
1.1166e-14
1.14543e-14
1.17496e-14
1.2052e-14
1.23617e-14
1.26789e-14
1.30036e-14
1.33362e-14
1.36767e-14
1.40252e-14
1.43821e-14
1.47474e-14
1.51213e-14
1.5504e-14
1.58957e-14
1.62965e-14
1.67066e-14
1.71263e-14
1.75556e-14
1.79948e-14
1.84441e-14
1.89036e-14
1.93735e-14
1.98541e-14
2.03455e-14
2.08478e-14
2.13614e-14
2.18863e-14
2.24228e-14
2.2971e-14
2.35311e-14
2.41032e-14
2.46877e-14
2.52846e-14
2.5894e-14
2.65163e-14
2.71514e-14
2.77995e-14
2.84608e-14
2.91354e-14
2.98234e-14
3.0525e-14
3.12401e-14
3.19688e-14
3.27113e-14
3.34675e-14
3.42374e-14
3.5021e-14
3.58183e-14
3.66293e-14
3.74537e-14
3.82914e-14
3.91424e-14
4.00062e-14
4.08827e-14
4.17716e-14
4.26724e-14
4.35847e-14
4.45079e-14
4.54416e-14
4.63849e-14
4.73372e-14
4.82975e-14
4.92649e-14
5.02383e-14
5.12165e-14
5.21981e-14
5.31816e-14
5.41653e-14
5.51473e-14
5.61257e-14
5.70981e-14
5.8062e-14
5.90147e-14
5.99532e-14
6.08741e-14
6.17739e-14
6.26485e-14
6.34937e-14
6.43046e-14
6.50762e-14
6.58028e-14
6.64785e-14
6.70966e-14
6.76503e-14
6.8132e-14
6.8534e-14
6.8848e-14
6.90657e-14
6.91786e-14
4.8702e-21
1.56213e-20
2.74599e-20
4.04476e-20
5.46286e-20
7.00411e-20
8.67264e-20
1.04732e-19
1.24114e-19
1.44932e-19
1.67254e-19
1.91152e-19
2.16701e-19
2.4398e-19
2.7307e-19
3.04054e-19
3.37018e-19
3.72048e-19
4.09234e-19
4.48667e-19
4.90439e-19
5.34646e-19
5.81383e-19
6.3075e-19
6.82847e-19
7.37778e-19
7.95649e-19
8.56567e-19
9.20643e-19
9.87991e-19
1.05873e-18
1.13297e-18
1.21083e-18
1.29245e-18
1.37795e-18
1.46746e-18
1.56111e-18
1.65904e-18
1.76139e-18
1.8683e-18
1.97993e-18
2.09642e-18
2.21793e-18
2.34461e-18
2.47664e-18
2.61417e-18
2.75737e-18
2.90644e-18
3.06153e-18
3.22285e-18
3.39057e-18
3.5649e-18
3.74603e-18
3.93417e-18
4.12953e-18
4.33232e-18
4.54277e-18
4.76111e-18
4.98757e-18
5.2224e-18
5.46583e-18
5.71812e-18
5.97954e-18
6.25035e-18
6.53084e-18
6.82127e-18
7.12195e-18
7.43317e-18
7.75524e-18
8.08848e-18
8.43321e-18
8.78977e-18
9.15851e-18
9.53977e-18
9.93392e-18
1.03413e-17
1.07624e-17
1.11975e-17
1.16471e-17
1.21115e-17
1.25913e-17
1.30868e-17
1.35985e-17
1.41268e-17
1.46724e-17
1.52355e-17
1.58169e-17
1.64169e-17
1.70361e-17
1.76752e-17
1.83346e-17
1.90149e-17
1.97168e-17
2.04409e-17
2.11878e-17
2.19582e-17
2.27527e-17
2.3572e-17
2.4417e-17
2.52882e-17
2.61866e-17
2.71128e-17
2.80676e-17
2.90519e-17
3.00666e-17
3.11125e-17
3.21905e-17
3.33016e-17
3.44466e-17
3.56266e-17
3.68427e-17
3.80957e-17
3.93869e-17
4.07172e-17
4.20879e-17
4.35001e-17
4.49549e-17
4.64537e-17
4.79977e-17
4.95881e-17
5.12264e-17
5.29139e-17
5.4652e-17
5.64422e-17
5.82859e-17
6.01848e-17
6.21404e-17
6.41543e-17
6.62283e-17
6.83639e-17
7.05631e-17
7.28276e-17
7.51593e-17
7.75602e-17
8.00322e-17
8.25773e-17
8.51977e-17
8.78955e-17
9.06729e-17
9.35322e-17
9.64757e-17
9.95059e-17
1.02625e-16
1.05836e-16
1.09142e-16
1.12544e-16
1.16046e-16
1.1965e-16
1.23361e-16
1.27179e-16
1.3111e-16
1.35155e-16
1.39318e-16
1.43602e-16
1.48011e-16
1.52549e-16
1.57219e-16
1.62024e-16
1.66969e-16
1.72058e-16
1.77294e-16
1.82682e-16
1.88226e-16
1.9393e-16
1.998e-16
2.05839e-16
2.12052e-16
2.18445e-16
2.25022e-16
2.31789e-16
2.38751e-16
2.45913e-16
2.5328e-16
2.6086e-16
2.68657e-16
2.76678e-16
2.84929e-16
2.93417e-16
3.02147e-16
3.11127e-16
3.20364e-16
3.29865e-16
3.39637e-16
3.49687e-16
3.60024e-16
3.70656e-16
3.8159e-16
3.92835e-16
4.044e-16
4.16293e-16
4.28523e-16
4.411e-16
4.54034e-16
4.67333e-16
4.81009e-16
4.95071e-16
5.0953e-16
5.24398e-16
5.39684e-16
5.55401e-16
5.71561e-16
5.88175e-16
6.05256e-16
6.22816e-16
6.40869e-16
6.59428e-16
6.78507e-16
6.9812e-16
7.18281e-16
7.39005e-16
7.60308e-16
7.82205e-16
8.04712e-16
8.27845e-16
8.51621e-16
8.76059e-16
9.01175e-16
9.26987e-16
9.53514e-16
9.80776e-16
1.00879e-15
1.03758e-15
1.06717e-15
1.09757e-15
1.12881e-15
1.1609e-15
1.19388e-15
1.22777e-15
1.26259e-15
1.29836e-15
1.33511e-15
1.37287e-15
1.41165e-15
1.4515e-15
1.49244e-15
1.53449e-15
1.57768e-15
1.62205e-15
1.66762e-15
1.71443e-15
1.76251e-15
1.81189e-15
1.86261e-15
1.91469e-15
1.96818e-15
2.02311e-15
2.07953e-15
2.13745e-15
2.19694e-15
2.25802e-15
2.32073e-15
2.38513e-15
2.45124e-15
2.51912e-15
2.58881e-15
2.66036e-15
2.73381e-15
2.80921e-15
2.88661e-15
2.96607e-15
3.04762e-15
3.13133e-15
3.21726e-15
3.30544e-15
3.39595e-15
3.48884e-15
3.58417e-15
3.682e-15
3.7824e-15
3.88541e-15
3.99112e-15
4.09959e-15
4.21088e-15
4.32506e-15
4.44221e-15
4.5624e-15
4.6857e-15
4.8122e-15
4.94195e-15
5.07505e-15
5.21158e-15
5.35162e-15
5.49525e-15
5.64257e-15
5.79365e-15
5.94859e-15
6.10748e-15
6.27042e-15
6.4375e-15
6.60882e-15
6.78448e-15
6.96459e-15
7.14924e-15
7.33855e-15
7.53261e-15
7.73156e-15
7.93549e-15
8.14453e-15
8.35879e-15
8.57839e-15
8.80345e-15
9.03411e-15
9.27048e-15
9.5127e-15
9.7609e-15
1.00152e-14
1.02758e-14
1.05427e-14
1.08162e-14
1.10964e-14
1.13834e-14
1.16774e-14
1.19785e-14
1.22869e-14
1.26027e-14
1.29262e-14
1.32574e-14
1.35965e-14
1.39437e-14
1.42992e-14
1.46632e-14
1.50357e-14
1.54171e-14
1.58074e-14
1.62068e-14
1.66156e-14
1.70339e-14
1.74619e-14
1.78998e-14
1.83478e-14
1.88061e-14
1.92748e-14
1.97541e-14
2.02443e-14
2.07456e-14
2.1258e-14
2.17819e-14
2.23174e-14
2.28647e-14
2.34239e-14
2.39954e-14
2.45791e-14
2.51754e-14
2.57844e-14
2.64062e-14
2.70411e-14
2.76892e-14
2.83505e-14
2.90254e-14
2.97138e-14
3.0416e-14
3.11319e-14
3.18617e-14
3.26056e-14
3.33634e-14
3.41353e-14
3.49213e-14
3.57213e-14
3.65353e-14
3.73633e-14
3.82051e-14
3.90606e-14
3.99296e-14
4.08119e-14
4.17072e-14
4.26152e-14
4.35355e-14
4.44677e-14
4.54112e-14
4.63655e-14
4.73298e-14
4.83034e-14
4.92854e-14
5.02748e-14
5.12706e-14
5.22715e-14
5.32761e-14
5.42829e-14
5.52903e-14
5.62963e-14
5.72989e-14
5.82958e-14
5.92846e-14
6.02623e-14
6.12259e-14
6.21722e-14
6.30975e-14
6.39976e-14
6.48683e-14
6.57048e-14
6.65017e-14
6.72534e-14
6.79536e-14
6.85958e-14
6.91724e-14
6.96758e-14
7.00975e-14
7.04286e-14
7.06595e-14
7.07802e-14
4.78124e-21
1.53314e-20
2.69323e-20
3.96518e-20
5.35506e-20
6.8681e-20
8.50937e-20
1.02842e-19
1.21985e-19
1.42584e-19
1.64707e-19
1.88427e-19
2.13817e-19
2.40956e-19
2.69924e-19
3.00805e-19
3.33683e-19
3.68646e-19
4.05783e-19
4.45185e-19
4.86946e-19
5.31161e-19
5.77927e-19
6.27346e-19
6.79517e-19
7.34548e-19
7.92544e-19
8.53615e-19
9.17874e-19
9.85435e-19
1.05642e-18
1.13094e-18
1.20912e-18
1.2911e-18
1.377e-18
1.46695e-18
1.56109e-18
1.65956e-18
1.7625e-18
1.87006e-18
1.98238e-18
2.09963e-18
2.22196e-18
2.34953e-18
2.4825e-18
2.62105e-18
2.76535e-18
2.91559e-18
3.07193e-18
3.23458e-18
3.40372e-18
3.57955e-18
3.76228e-18
3.95212e-18
4.14927e-18
4.35396e-18
4.56642e-18
4.78687e-18
5.01556e-18
5.25274e-18
5.49864e-18
5.75353e-18
6.01768e-18
6.29136e-18
6.57484e-18
6.86843e-18
7.1724e-18
7.48708e-18
7.81276e-18
8.14978e-18
8.49846e-18
8.85914e-18
9.23218e-18
9.61793e-18
1.00168e-17
1.0429e-17
1.08552e-17
1.12956e-17
1.17507e-17
1.22208e-17
1.27065e-17
1.32082e-17
1.37263e-17
1.42614e-17
1.48139e-17
1.53842e-17
1.59731e-17
1.65808e-17
1.72081e-17
1.78555e-17
1.85236e-17
1.92129e-17
1.99241e-17
2.06578e-17
2.14146e-17
2.21953e-17
2.30005e-17
2.38309e-17
2.46873e-17
2.55704e-17
2.6481e-17
2.74198e-17
2.83877e-17
2.93856e-17
3.04143e-17
3.14746e-17
3.25676e-17
3.36941e-17
3.48551e-17
3.60516e-17
3.72846e-17
3.85552e-17
3.98645e-17
4.12136e-17
4.26036e-17
4.40357e-17
4.55112e-17
4.70312e-17
4.85972e-17
5.02102e-17
5.18719e-17
5.35835e-17
5.53464e-17
5.71622e-17
5.90324e-17
6.09586e-17
6.29423e-17
6.49852e-17
6.7089e-17
6.92555e-17
7.14865e-17
7.37837e-17
7.61492e-17
7.85848e-17
8.10927e-17
8.36748e-17
8.63332e-17
8.90703e-17
9.18881e-17
9.47891e-17
9.77756e-17
1.0085e-16
1.04015e-16
1.07273e-16
1.10627e-16
1.14079e-16
1.17632e-16
1.21289e-16
1.25054e-16
1.28929e-16
1.32917e-16
1.37021e-16
1.41246e-16
1.45593e-16
1.50067e-16
1.54672e-16
1.5941e-16
1.64287e-16
1.69305e-16
1.74468e-16
1.79782e-16
1.8525e-16
1.90876e-16
1.96665e-16
2.02621e-16
2.08749e-16
2.15055e-16
2.21543e-16
2.28217e-16
2.35085e-16
2.4215e-16
2.49418e-16
2.56895e-16
2.64588e-16
2.72501e-16
2.80641e-16
2.89015e-16
2.97629e-16
3.06489e-16
3.15603e-16
3.24978e-16
3.3462e-16
3.44538e-16
3.54739e-16
3.6523e-16
3.76021e-16
3.87118e-16
3.98531e-16
4.10269e-16
4.2234e-16
4.34753e-16
4.47519e-16
4.60646e-16
4.74145e-16
4.88026e-16
5.02299e-16
5.16975e-16
5.32065e-16
5.47581e-16
5.63534e-16
5.79936e-16
5.968e-16
6.14138e-16
6.31962e-16
6.50287e-16
6.69125e-16
6.88491e-16
7.08399e-16
7.28864e-16
7.49901e-16
7.71524e-16
7.93751e-16
8.16598e-16
8.4008e-16
8.64215e-16
8.89022e-16
9.14517e-16
9.40719e-16
9.67648e-16
9.95322e-16
1.02376e-15
1.05299e-15
1.08302e-15
1.11388e-15
1.14559e-15
1.17818e-15
1.21166e-15
1.24606e-15
1.2814e-15
1.31772e-15
1.35502e-15
1.39335e-15
1.43273e-15
1.47318e-15
1.51474e-15
1.55743e-15
1.60128e-15
1.64633e-15
1.69259e-15
1.74012e-15
1.78893e-15
1.83906e-15
1.89055e-15
1.94343e-15
1.99773e-15
2.0535e-15
2.11078e-15
2.16959e-15
2.22998e-15
2.29199e-15
2.35567e-15
2.42105e-15
2.48818e-15
2.5571e-15
2.62785e-15
2.7005e-15
2.77507e-15
2.85163e-15
2.93022e-15
3.01089e-15
3.0937e-15
3.1787e-15
3.26594e-15
3.35549e-15
3.44739e-15
3.54171e-15
3.63851e-15
3.73784e-15
3.83978e-15
3.94439e-15
4.05172e-15
4.16186e-15
4.27487e-15
4.39082e-15
4.50978e-15
4.63183e-15
4.75703e-15
4.88548e-15
5.01724e-15
5.15241e-15
5.29105e-15
5.43326e-15
5.57912e-15
5.72872e-15
5.88214e-15
6.03949e-15
6.20085e-15
6.36632e-15
6.536e-15
6.70998e-15
6.88838e-15
7.07129e-15
7.25882e-15
7.45107e-15
7.64817e-15
7.85022e-15
8.05733e-15
8.26964e-15
8.48724e-15
8.71028e-15
8.93886e-15
9.17313e-15
9.4132e-15
9.65922e-15
9.91131e-15
1.01696e-14
1.04343e-14
1.07054e-14
1.09832e-14
1.12678e-14
1.15593e-14
1.18579e-14
1.21638e-14
1.2477e-14
1.27979e-14
1.31264e-14
1.34628e-14
1.38073e-14
1.41601e-14
1.45212e-14
1.48909e-14
1.52694e-14
1.56568e-14
1.60533e-14
1.64591e-14
1.68744e-14
1.72994e-14
1.77342e-14
1.81791e-14
1.86343e-14
1.90999e-14
1.95761e-14
2.00631e-14
2.05612e-14
2.10705e-14
2.15912e-14
2.21235e-14
2.26677e-14
2.32238e-14
2.37921e-14
2.43728e-14
2.49661e-14
2.55721e-14
2.6191e-14
2.6823e-14
2.74683e-14
2.81269e-14
2.87992e-14
2.94852e-14
3.0185e-14
3.08987e-14
3.16266e-14
3.23686e-14
3.31248e-14
3.38954e-14
3.46803e-14
3.54795e-14
3.62931e-14
3.7121e-14
3.79631e-14
3.88193e-14
3.96896e-14
4.05737e-14
4.14714e-14
4.23824e-14
4.33064e-14
4.42431e-14
4.51919e-14
4.61525e-14
4.71241e-14
4.81061e-14
4.90977e-14
5.0098e-14
5.11062e-14
5.2121e-14
5.31413e-14
5.41657e-14
5.51926e-14
5.62204e-14
5.72471e-14
5.82708e-14
5.92892e-14
6.02996e-14
6.12993e-14
6.22853e-14
6.32542e-14
6.42022e-14
6.51255e-14
6.60194e-14
6.68791e-14
6.76994e-14
6.84744e-14
6.91977e-14
6.98625e-14
7.04611e-14
7.09853e-14
7.14261e-14
7.17739e-14
7.20178e-14
7.21461e-14
4.7025e-21
1.50738e-20
2.64636e-20
3.89386e-20
5.25677e-20
6.74149e-20
8.35416e-20
1.0101e-19
1.19883e-19
1.40228e-19
1.62113e-19
1.85612e-19
2.10799e-19
2.37752e-19
2.66551e-19
2.97278e-19
3.30018e-19
3.64857e-19
4.01884e-19
4.41191e-19
4.82871e-19
5.2702e-19
5.73736e-19
6.23119e-19
6.75274e-19
7.30304e-19
7.88319e-19
8.4943e-19
9.13749e-19
9.81394e-19
1.05248e-18
1.12714e-18
1.20549e-18
1.28766e-18
1.37378e-18
1.46398e-18
1.55841e-18
1.6572e-18
1.76051e-18
1.86847e-18
1.98124e-18
2.09898e-18
2.22185e-18
2.35001e-18
2.48362e-18
2.62286e-18
2.76791e-18
2.91895e-18
3.07617e-18
3.23974e-18
3.40988e-18
3.58678e-18
3.77065e-18
3.9617e-18
4.16014e-18
4.3662e-18
4.58011e-18
4.80211e-18
5.03243e-18
5.27132e-18
5.51904e-18
5.77584e-18
6.04201e-18
6.31781e-18
6.60353e-18
6.89946e-18
7.20589e-18
7.52315e-18
7.85154e-18
8.19139e-18
8.54304e-18
8.90683e-18
9.28311e-18
9.67225e-18
1.00746e-17
1.04906e-17
1.09206e-17
1.1365e-17
1.18243e-17
1.22988e-17
1.2789e-17
1.32955e-17
1.38185e-17
1.43586e-17
1.49164e-17
1.54923e-17
1.60869e-17
1.67006e-17
1.73341e-17
1.79879e-17
1.86626e-17
1.93588e-17
2.00771e-17
2.08182e-17
2.15827e-17
2.23714e-17
2.31848e-17
2.40238e-17
2.4889e-17
2.57812e-17
2.67013e-17
2.76499e-17
2.8628e-17
2.96363e-17
3.06758e-17
3.17474e-17
3.28519e-17
3.39904e-17
3.51637e-17
3.6373e-17
3.76193e-17
3.89035e-17
4.02269e-17
4.15906e-17
4.29956e-17
4.44432e-17
4.59347e-17
4.74713e-17
4.90543e-17
5.0685e-17
5.23648e-17
5.40951e-17
5.58774e-17
5.77132e-17
5.9604e-17
6.15514e-17
6.3557e-17
6.56225e-17
6.77496e-17
6.99401e-17
7.21959e-17
7.45187e-17
7.69105e-17
7.93733e-17
8.19091e-17
8.452e-17
8.72082e-17
8.99759e-17
9.28253e-17
9.57588e-17
9.87789e-17
1.01888e-16
1.05088e-16
1.08383e-16
1.11775e-16
1.15266e-16
1.18859e-16
1.22558e-16
1.26365e-16
1.30283e-16
1.34317e-16
1.38468e-16
1.4274e-16
1.47137e-16
1.51662e-16
1.56319e-16
1.61111e-16
1.66043e-16
1.71118e-16
1.7634e-16
1.81714e-16
1.87244e-16
1.92935e-16
1.9879e-16
2.04814e-16
2.11013e-16
2.1739e-16
2.23952e-16
2.30704e-16
2.37649e-16
2.44795e-16
2.52147e-16
2.5971e-16
2.67491e-16
2.75495e-16
2.83729e-16
2.92199e-16
3.00912e-16
3.09874e-16
3.19093e-16
3.28576e-16
3.38329e-16
3.48361e-16
3.5868e-16
3.69292e-16
3.80207e-16
3.91433e-16
4.02978e-16
4.14851e-16
4.27062e-16
4.39619e-16
4.52532e-16
4.65811e-16
4.79466e-16
4.93508e-16
5.07946e-16
5.22793e-16
5.38058e-16
5.53754e-16
5.69893e-16
5.86486e-16
6.03545e-16
6.21084e-16
6.39116e-16
6.57654e-16
6.76712e-16
6.96303e-16
7.16443e-16
7.37147e-16
7.58429e-16
7.80305e-16
8.02791e-16
8.25904e-16
8.49661e-16
8.74078e-16
8.99175e-16
9.24968e-16
9.51477e-16
9.78721e-16
1.00672e-15
1.03549e-15
1.06506e-15
1.09544e-15
1.12667e-15
1.15875e-15
1.19172e-15
1.22559e-15
1.2604e-15
1.29616e-15
1.3329e-15
1.37065e-15
1.40943e-15
1.44927e-15
1.4902e-15
1.53224e-15
1.57544e-15
1.61981e-15
1.66538e-15
1.71219e-15
1.76028e-15
1.80967e-15
1.86039e-15
1.91249e-15
1.966e-15
2.02095e-15
2.07738e-15
2.13533e-15
2.19484e-15
2.25595e-15
2.3187e-15
2.38313e-15
2.44928e-15
2.51721e-15
2.58695e-15
2.65855e-15
2.73206e-15
2.80752e-15
2.88499e-15
2.96452e-15
3.04615e-15
3.12995e-15
3.21596e-15
3.30425e-15
3.39486e-15
3.48786e-15
3.58331e-15
3.68127e-15
3.78179e-15
3.88495e-15
3.99081e-15
4.09944e-15
4.2109e-15
4.32527e-15
4.44261e-15
4.563e-15
4.68651e-15
4.81323e-15
4.94322e-15
5.07658e-15
5.21337e-15
5.35368e-15
5.49761e-15
5.64523e-15
5.79663e-15
5.95192e-15
6.11117e-15
6.27448e-15
6.44196e-15
6.61369e-15
6.78979e-15
6.97035e-15
7.15548e-15
7.34528e-15
7.53988e-15
7.73937e-15
7.94388e-15
8.15352e-15
8.36841e-15
8.58867e-15
8.81443e-15
9.04581e-15
9.28294e-15
9.52595e-15
9.77498e-15
1.00302e-14
1.02916e-14
1.05595e-14
1.0834e-14
1.11152e-14
1.14033e-14
1.16984e-14
1.20007e-14
1.23103e-14
1.26274e-14
1.29522e-14
1.32848e-14
1.36254e-14
1.39742e-14
1.43313e-14
1.46969e-14
1.50712e-14
1.54544e-14
1.58466e-14
1.62481e-14
1.66589e-14
1.70794e-14
1.75097e-14
1.795e-14
1.84005e-14
1.88613e-14
1.93328e-14
1.9815e-14
2.03082e-14
2.08125e-14
2.13283e-14
2.18556e-14
2.23946e-14
2.29457e-14
2.35089e-14
2.40844e-14
2.46726e-14
2.52734e-14
2.58872e-14
2.6514e-14
2.71542e-14
2.78078e-14
2.8475e-14
2.9156e-14
2.98509e-14
3.05598e-14
3.1283e-14
3.20204e-14
3.27722e-14
3.35384e-14
3.43192e-14
3.51146e-14
3.59245e-14
3.6749e-14
3.75881e-14
3.84417e-14
3.93097e-14
4.01919e-14
4.10882e-14
4.19984e-14
4.29222e-14
4.38593e-14
4.48093e-14
4.57718e-14
4.67463e-14
4.77321e-14
4.87286e-14
4.97351e-14
5.07506e-14
5.17742e-14
5.28048e-14
5.38412e-14
5.4882e-14
5.59256e-14
5.69705e-14
5.80147e-14
5.90562e-14
6.00926e-14
6.11215e-14
6.214e-14
6.3145e-14
6.41333e-14
6.51011e-14
6.60443e-14
6.69584e-14
6.78387e-14
6.86796e-14
6.94752e-14
7.02191e-14
7.09042e-14
7.15227e-14
7.20658e-14
7.25241e-14
7.28871e-14
7.3143e-14
7.32784e-14
4.63652e-21
1.48579e-20
2.60713e-20
3.83396e-20
5.17349e-20
6.63288e-20
8.21922e-20
9.93952e-20
1.18008e-19
1.38102e-19
1.59749e-19
1.83023e-19
2.07999e-19
2.34756e-19
2.63373e-19
2.9393e-19
3.26513e-19
3.61207e-19
3.98101e-19
4.37285e-19
4.78853e-19
5.22901e-19
5.69526e-19
6.18831e-19
6.70918e-19
7.25895e-19
7.83869e-19
8.44952e-19
9.0926e-19
9.7691e-19
1.04802e-18
1.12272e-18
1.20113e-18
1.28338e-18
1.3696e-18
1.45993e-18
1.55451e-18
1.65349e-18
1.757e-18
1.8652e-18
1.97824e-18
2.09628e-18
2.21948e-18
2.34801e-18
2.48203e-18
2.62172e-18
2.76727e-18
2.91884e-18
3.07663e-18
3.24084e-18
3.41165e-18
3.58928e-18
3.77393e-18
3.96582e-18
4.16516e-18
4.37217e-18
4.5871e-18
4.81018e-18
5.04165e-18
5.28176e-18
5.53077e-18
5.78894e-18
6.05655e-18
6.33387e-18