/*--------------------------------*- C++ -*----------------------------------*\
  =========                 |
  \\      /  F ield         | OpenFOAM: The Open Source CFD Toolbox
   \\    /   O peration     | Website:  https://openfoam.org
    \\  /    A nd           | Version:  dev
     \\/     M anipulation  |
\*---------------------------------------------------------------------------*/
FoamFile
{
    format      ascii;
    class       volScalarField;
    location    "0.76";
    object      beta;
}
// * * * * * * * * * * * * * * * * * * * * * * * * * * * * * * * * * * * * * //

dimensions      [0 0 0 0 0 0 0];

internalField   uniform 0;

boundaryField
{
    frontAndBack
    {
        type            empty;
    }
    inlet
    {
        type            calculated;
        value           uniform 0;
    }
    outlet
    {
        type            calculated;
        value           uniform 0;
    }
    substrate
    {
        type            calculated;
        value           nonuniform List<scalar> 
400
(
0.00276608
0.00290564
0.00300803
0.00310162
0.00319055
0.00327519
0.00335654
0.00343547
0.00351263
0.00358845
0.00366328
0.00373739
0.00381096
0.00388416
0.00395709
0.00402986
0.00410251
0.00417508
0.00424762
0.00432013
0.00439261
0.00446507
0.0045375
0.00460988
0.0046822
0.00475444
0.00482658
0.00489859
0.00497045
0.00504214
0.00511363
0.00518489
0.00525591
0.00532665
0.0053971
0.00546722
0.005537
0.0056064
0.00567542
0.00574402
0.00581218
0.00587989
0.00594712
0.00601386
0.00608009
0.00614578
0.00621093
0.00627551
0.00633951
0.00640292
0.00646572
0.0065279
0.00658944
0.00665034
0.00671059
0.00677017
0.00682908
0.0068873
0.00694484
0.00700167
0.00705781
0.00711323
0.00716794
0.00722193
0.0072752
0.00732775
0.00737956
0.00743065
0.00748101
0.00753064
0.00757954
0.00762771
0.00767514
0.00772185
0.00776784
0.00781309
0.00785763
0.00790145
0.00794455
0.00798695
0.00802863
0.00806962
0.00810991
0.0081495
0.00818841
0.00822663
0.00826419
0.00830107
0.00833729
0.00837285
0.00840777
0.00844204
0.00847567
0.00850868
0.00854107
0.00857284
0.00860401
0.00863458
0.00866456
0.00869396
0.00872278
0.00875104
0.00877873
0.00880588
0.00883248
0.00885855
0.0088841
0.00890912
0.00893364
0.00895765
0.00898117
0.0090042
0.00902676
0.00904884
0.00907046
0.00909163
0.00911235
0.00913264
0.00915249
0.00917192
0.00919093
0.00920953
0.00922774
0.00924555
0.00926297
0.00928002
0.00929669
0.009313
0.00932895
0.00934455
0.00935981
0.00937473
0.00938932
0.00940358
0.00941753
0.00943116
0.00944449
0.00945752
0.00947026
0.00948271
0.00949488
0.00950678
0.00951841
0.00952977
0.00954087
0.00955172
0.00956232
0.00957269
0.00958281
0.0095927
0.00960236
0.0096118
0.00962103
0.00963004
0.00963884
0.00964744
0.00965584
0.00966405
0.00967206
0.00967989
0.00968753
0.009695
0.00970229
0.00970942
0.00971637
0.00972316
0.0097298
0.00973627
0.0097426
0.00974878
0.00975481
0.0097607
0.00976645
0.00977206
0.00977754
0.00978289
0.00978812
0.00979322
0.0097982
0.00980306
0.00980781
0.00981244
0.00981697
0.00982139
0.0098257
0.0098299
0.00983401
0.00983802
0.00984194
0.00984576
0.00984949
0.00985313
0.00985668
0.00986015
0.00986354
0.00986684
0.00987006
0.00987321
0.00987628
0.00987928
0.00988221
0.00988506
0.00988785
0.00989057
0.00989323
0.00989582
0.00989835
0.00990081
0.00990322
0.00990557
0.00990786
0.0099101
0.00991229
0.00991442
0.0099165
0.00991853
0.00992051
0.00992244
0.00992433
0.00992617
0.00992796
0.00992972
0.00993143
0.00993309
0.00993472
0.00993631
0.00993786
0.00993937
0.00994085
0.00994229
0.0099437
0.00994507
0.00994641
0.00994771
0.00994899
0.00995023
0.00995144
0.00995262
0.00995378
0.00995491
0.009956
0.00995708
0.00995812
0.00995914
0.00996014
0.00996111
0.00996206
0.00996299
0.00996389
0.00996477
0.00996563
0.00996647
0.00996729
0.00996808
0.00996886
0.00996962
0.00997036
0.00997109
0.00997179
0.00997248
0.00997315
0.00997381
0.00997445
0.00997507
0.00997568
0.00997627
0.00997685
0.00997742
0.00997797
0.00997851
0.00997903
0.00997954
0.00998004
0.00998053
0.00998101
0.00998147
0.00998192
0.00998236
0.00998279
0.00998321
0.00998362
0.00998402
0.00998441
0.0099848
0.00998517
0.00998553
0.00998588
0.00998623
0.00998656
0.00998689
0.00998721
0.00998753
0.00998783
0.00998813
0.00998842
0.0099887
0.00998898
0.00998925
0.00998951
0.00998977
0.00999002
0.00999026
0.0099905
0.00999073
0.00999096
0.00999118
0.00999139
0.0099916
0.00999181
0.00999201
0.0099922
0.00999239
0.00999258
0.00999276
0.00999294
0.00999311
0.00999328
0.00999344
0.0099936
0.00999376
0.00999391
0.00999406
0.00999421
0.00999435
0.00999449
0.00999462
0.00999475
0.00999488
0.00999501
0.00999513
0.00999525
0.00999536
0.00999548
0.00999559
0.0099957
0.0099958
0.0099959
0.009996
0.0099961
0.0099962
0.00999629
0.00999638
0.00999647
0.00999656
0.00999664
0.00999672
0.0099968
0.00999688
0.00999696
0.00999703
0.0099971
0.00999717
0.00999724
0.00999731
0.00999738
0.00999744
0.0099975
0.00999756
0.00999762
0.00999768
0.00999774
0.00999779
0.00999785
0.0099979
0.00999795
0.009998
0.00999805
0.0099981
0.00999814
0.00999819
0.00999823
0.00999827
0.00999831
0.00999835
0.00999839
0.00999843
0.00999847
0.00999851
0.00999854
0.00999857
0.00999861
0.00999864
0.00999867
0.0099987
0.00999873
0.00999875
0.00999878
0.0099988
0.00999883
0.00999885
0.00999887
0.00999889
0.00999891
0.00999892
0.00999894
0.00999895
0.00999896
0.00999897
0.00999897
0.00999897
)
;
    }
    Wall
    {
        type            calculated;
        value           nonuniform List<scalar> 
400
(
0.00276608
0.00290564
0.00300802
0.00310161
0.00319055
0.0032752
0.00335655
0.00343549
0.00351265
0.00358847
0.00366331
0.00373741
0.00381099
0.00388418
0.00395712
0.00402988
0.00410253
0.0041751
0.00424764
0.00432014
0.00439263
0.00446509
0.00453751
0.00460989
0.00468221
0.00475445
0.00482659
0.00489859
0.00497045
0.00504214
0.00511363
0.00518489
0.00525591
0.00532665
0.00539709
0.00546721
0.00553699
0.00560639
0.00567541
0.00574401
0.00581217
0.00587988
0.00594711
0.00601385
0.00608007
0.00614577
0.00621091
0.00627549
0.00633949
0.0064029
0.0064657
0.00652788
0.00658942
0.00665033
0.00671057
0.00677015
0.00682906
0.00688728
0.00694482
0.00700165
0.00705779
0.00711321
0.00716792
0.00722191
0.00727518
0.00732773
0.00737954
0.00743063
0.00748099
0.00753062
0.00757952
0.00762769
0.00767512
0.00772183
0.00776781
0.00781307
0.00785761
0.00790143
0.00794453
0.00798693
0.00802861
0.0080696
0.00810989
0.00814948
0.00818839
0.00822662
0.00826417
0.00830105
0.00833727
0.00837283
0.00840775
0.00844202
0.00847566
0.00850867
0.00854105
0.00857283
0.008604
0.00863457
0.00866455
0.00869394
0.00872277
0.00875102
0.00877872
0.00880587
0.00883247
0.00885854
0.00888409
0.00890911
0.00893363
0.00895764
0.00898116
0.00900419
0.00902675
0.00904883
0.00907045
0.00909162
0.00911234
0.00913263
0.00915248
0.00917191
0.00919092
0.00920952
0.00922773
0.00924554
0.00926296
0.00928001
0.00929668
0.00931299
0.00932894
0.00934454
0.0093598
0.00937472
0.00938931
0.00940357
0.00941752
0.00943116
0.00944449
0.00945752
0.00947026
0.00948271
0.00949488
0.00950677
0.0095184
0.00952976
0.00954087
0.00955172
0.00956232
0.00957268
0.0095828
0.00959269
0.00960236
0.0096118
0.00962102
0.00963003
0.00963884
0.00964744
0.00965584
0.00966404
0.00967206
0.00967988
0.00968753
0.009695
0.00970229
0.00970941
0.00971637
0.00972316
0.00972979
0.00973627
0.0097426
0.00974877
0.0097548
0.00976069
0.00976644
0.00977206
0.00977754
0.00978289
0.00978812
0.00979322
0.0097982
0.00980306
0.00980781
0.00981244
0.00981697
0.00982138
0.00982569
0.0098299
0.00983401
0.00983802
0.00984194
0.00984576
0.00984949
0.00985313
0.00985668
0.00986015
0.00986353
0.00986684
0.00987006
0.00987321
0.00987628
0.00987928
0.00988221
0.00988506
0.00988785
0.00989057
0.00989322
0.00989582
0.00989834
0.00990081
0.00990322
0.00990557
0.00990786
0.0099101
0.00991229
0.00991442
0.0099165
0.00991853
0.00992051
0.00992244
0.00992433
0.00992617
0.00992796
0.00992971
0.00993142
0.00993309
0.00993472
0.00993631
0.00993786
0.00993937
0.00994085
0.00994229
0.0099437
0.00994507
0.0099464
0.00994771
0.00994898
0.00995023
0.00995144
0.00995262
0.00995378
0.0099549
0.009956
0.00995708
0.00995812
0.00995914
0.00996014
0.00996111
0.00996206
0.00996299
0.00996389
0.00996477
0.00996563
0.00996647
0.00996728
0.00996808
0.00996886
0.00996962
0.00997036
0.00997109
0.00997179
0.00997248
0.00997315
0.00997381
0.00997445
0.00997507
0.00997568
0.00997627
0.00997685
0.00997742
0.00997797
0.00997851
0.00997903
0.00997954
0.00998004
0.00998053
0.00998101
0.00998147
0.00998192
0.00998236
0.00998279
0.00998321
0.00998362
0.00998402
0.00998441
0.0099848
0.00998517
0.00998553
0.00998588
0.00998623
0.00998656
0.00998689
0.00998721
0.00998752
0.00998783
0.00998813
0.00998842
0.0099887
0.00998898
0.00998925
0.00998951
0.00998976
0.00999002
0.00999026
0.0099905
0.00999073
0.00999096
0.00999118
0.00999139
0.0099916
0.00999181
0.00999201
0.0099922
0.00999239
0.00999258
0.00999276
0.00999294
0.00999311
0.00999328
0.00999344
0.0099936
0.00999376
0.00999391
0.00999406
0.00999421
0.00999435
0.00999449
0.00999462
0.00999475
0.00999488
0.00999501
0.00999513
0.00999525
0.00999536
0.00999548
0.00999559
0.0099957
0.0099958
0.0099959
0.009996
0.0099961
0.0099962
0.00999629
0.00999638
0.00999647
0.00999655
0.00999664
0.00999672
0.0099968
0.00999688
0.00999696
0.00999703
0.0099971
0.00999717
0.00999724
0.00999731
0.00999738
0.00999744
0.0099975
0.00999756
0.00999762
0.00999768
0.00999774
0.00999779
0.00999785
0.0099979
0.00999795
0.009998
0.00999805
0.0099981
0.00999814
0.00999819
0.00999823
0.00999827
0.00999831
0.00999835
0.00999839
0.00999843
0.00999847
0.0099985
0.00999854
0.00999857
0.00999861
0.00999864
0.00999867
0.0099987
0.00999873
0.00999875
0.00999878
0.0099988
0.00999883
0.00999885
0.00999887
0.00999889
0.00999891
0.00999892
0.00999894
0.00999895
0.00999896
0.00999897
0.00999897
0.00999897
)
;
    }
}


// ************************************************************************* //
