/*--------------------------------*- C++ -*----------------------------------*\
  =========                 |
  \\      /  F ield         | OpenFOAM: The Open Source CFD Toolbox
   \\    /   O peration     | Website:  https://openfoam.org
    \\  /    A nd           | Version:  dev
     \\/     M anipulation  |
\*---------------------------------------------------------------------------*/
FoamFile
{
    format      ascii;
    class       volScalarField;
    location    "0.76";
    object      Exp1;
}
// * * * * * * * * * * * * * * * * * * * * * * * * * * * * * * * * * * * * * //

dimensions      [0 0 0 0 0 0 0];

internalField   uniform 0;

boundaryField
{
    frontAndBack
    {
        type            empty;
    }
    inlet
    {
        type            calculated;
        value           uniform 0;
    }
    outlet
    {
        type            calculated;
        value           uniform 0;
    }
    substrate
    {
        type            calculated;
        value           nonuniform List<scalar> 
400
(
4.27331e-19
1.36107e-18
2.38834e-18
3.50484e-18
4.7113e-18
6.01194e-18
7.41083e-18
8.91229e-18
1.05211e-17
1.22425e-17
1.40821e-17
1.60457e-17
1.81394e-17
2.03693e-17
2.2742e-17
2.52639e-17
2.79417e-17
3.07822e-17
3.37922e-17
3.69789e-17
4.03492e-17
4.39105e-17
4.76701e-17
5.16355e-17
5.58143e-17
6.02145e-17
6.4844e-17
6.97108e-17
7.48234e-17
8.01903e-17
8.582e-17
9.17216e-17
9.79041e-17
1.04377e-16
1.11149e-16
1.18231e-16
1.25633e-16
1.33364e-16
1.41436e-16
1.49858e-16
1.58642e-16
1.678e-16
1.77342e-16
1.87281e-16
1.97629e-16
2.08397e-16
2.196e-16
2.3125e-16
2.4336e-16
2.55944e-16
2.69017e-16
2.82592e-16
2.96686e-16
3.11312e-16
3.26487e-16
3.42226e-16
3.58547e-16
3.75467e-16
3.93002e-16
4.1117e-16
4.29991e-16
4.49483e-16
4.69665e-16
4.90557e-16
5.1218e-16
5.34555e-16
5.57703e-16
5.81648e-16
6.06411e-16
6.32016e-16
6.58487e-16
6.8585e-16
7.14129e-16
7.43352e-16
7.73544e-16
8.04734e-16
8.3695e-16
8.70222e-16
9.0458e-16
9.40054e-16
9.76677e-16
1.01448e-15
1.0535e-15
1.09377e-15
1.13532e-15
1.1782e-15
1.22244e-15
1.26807e-15
1.31515e-15
1.3637e-15
1.41377e-15
1.46541e-15
1.51866e-15
1.57356e-15
1.63016e-15
1.68852e-15
1.74867e-15
1.81068e-15
1.87459e-15
1.94046e-15
2.00834e-15
2.07829e-15
2.15037e-15
2.22464e-15
2.30116e-15
2.38e-15
2.46122e-15
2.54488e-15
2.63107e-15
2.71984e-15
2.81127e-15
2.90544e-15
3.00243e-15
3.10231e-15
3.20516e-15
3.31107e-15
3.42013e-15
3.53242e-15
3.64804e-15
3.76707e-15
3.88962e-15
4.01578e-15
4.14565e-15
4.27935e-15
4.41696e-15
4.55861e-15
4.70441e-15
4.85448e-15
5.00892e-15
5.16787e-15
5.33145e-15
5.49979e-15
5.67302e-15
5.85128e-15
6.0347e-15
6.22344e-15
6.41763e-15
6.61744e-15
6.823e-15
7.03449e-15
7.25207e-15
7.47591e-15
7.70617e-15
7.94303e-15
8.18668e-15
8.43731e-15
8.6951e-15
8.96025e-15
9.23296e-15
9.51344e-15
9.8019e-15
1.00986e-14
1.04036e-14
1.07174e-14
1.104e-14
1.13718e-14
1.17129e-14
1.20636e-14
1.24243e-14
1.27951e-14
1.31764e-14
1.35683e-14
1.39713e-14
1.43855e-14
1.48114e-14
1.52492e-14
1.56992e-14
1.61617e-14
1.66372e-14
1.71259e-14
1.76282e-14
1.81444e-14
1.8675e-14
1.92203e-14
1.97806e-14
2.03565e-14
2.09482e-14
2.15563e-14
2.21812e-14
2.28232e-14
2.34828e-14
2.41606e-14
2.48569e-14
2.55723e-14
2.63073e-14
2.70623e-14
2.78379e-14
2.86346e-14
2.9453e-14
3.02937e-14
3.11571e-14
3.20439e-14
3.29547e-14
3.38901e-14
3.48508e-14
3.58374e-14
3.68504e-14
3.78908e-14
3.8959e-14
4.00558e-14
4.1182e-14
4.23383e-14
4.35255e-14
4.47442e-14
4.59954e-14
4.72798e-14
4.85983e-14
4.99517e-14
5.13409e-14
5.27668e-14
5.42303e-14
5.57323e-14
5.72738e-14
5.88558e-14
6.04792e-14
6.21451e-14
6.38545e-14
6.56085e-14
6.74081e-14
6.92546e-14
7.11489e-14
7.30924e-14
7.50861e-14
7.71313e-14
7.92293e-14
8.13812e-14
8.35885e-14
8.58523e-14
8.81742e-14
9.05554e-14
9.29973e-14
9.55015e-14
9.80693e-14
1.00702e-13
1.03402e-13
1.0617e-13
1.09008e-13
1.11917e-13
1.149e-13
1.17958e-13
1.21092e-13
1.24304e-13
1.27597e-13
1.30972e-13
1.3443e-13
1.37975e-13
1.41607e-13
1.45329e-13
1.49143e-13
1.53051e-13
1.57055e-13
1.61157e-13
1.6536e-13
1.69665e-13
1.74075e-13
1.78593e-13
1.8322e-13
1.87959e-13
1.92813e-13
1.97784e-13
2.02875e-13
2.08087e-13
2.13425e-13
2.18891e-13
2.24486e-13
2.30216e-13
2.36081e-13
2.42085e-13
2.48231e-13
2.54522e-13
2.60962e-13
2.67552e-13
2.74297e-13
2.812e-13
2.88264e-13
2.95492e-13
3.02888e-13
3.10455e-13
3.18197e-13
3.26117e-13
3.34219e-13
3.42507e-13
3.50985e-13
3.59656e-13
3.68524e-13
3.77594e-13
3.86869e-13
3.96353e-13
4.06052e-13
4.15967e-13
4.26105e-13
4.3647e-13
4.47065e-13
4.57896e-13
4.68967e-13
4.80283e-13
4.91848e-13
5.03667e-13
5.15745e-13
5.28087e-13
5.40697e-13
5.53582e-13
5.66746e-13
5.80194e-13
5.93931e-13
6.07963e-13
6.22296e-13
6.36934e-13
6.51883e-13
6.67149e-13
6.82737e-13
6.98654e-13
7.14904e-13
7.31494e-13
7.4843e-13
7.65717e-13
7.83362e-13
8.0137e-13
8.19748e-13
8.38502e-13
8.57638e-13
8.77163e-13
8.97082e-13
9.17402e-13
9.38129e-13
9.5927e-13
9.80831e-13
1.00282e-12
1.02524e-12
1.0481e-12
1.0714e-12
1.09516e-12
1.11937e-12
1.14405e-12
1.1692e-12
1.19483e-12
1.22093e-12
1.24753e-12
1.27462e-12
1.30221e-12
1.33031e-12
1.35892e-12
1.38804e-12
1.41769e-12
1.44786e-12
1.47856e-12
1.50979e-12
1.54156e-12
1.57387e-12
1.60672e-12
1.64012e-12
1.67407e-12
1.70856e-12
1.7436e-12
1.77919e-12
1.81532e-12
1.85199e-12
1.88921e-12
1.92695e-12
1.96523e-12
2.00403e-12
2.04334e-12
2.08315e-12
2.12345e-12
2.16423e-12
2.20546e-12
2.24713e-12
2.28922e-12
2.3317e-12
2.37454e-12
2.41772e-12
2.46119e-12
2.50492e-12
2.54886e-12
2.59297e-12
2.63719e-12
2.68145e-12
2.7257e-12
2.76985e-12
2.81383e-12
2.85755e-12
2.90091e-12
2.94379e-12
2.98608e-12
3.02764e-12
3.06834e-12
3.108e-12
3.14647e-12
3.18355e-12
3.21904e-12
3.25271e-12
3.28432e-12
3.31361e-12
3.34031e-12
3.36412e-12
3.38472e-12
3.4018e-12
3.41504e-12
3.42412e-12
3.42876e-12
)
;
    }
    Wall
    {
        type            calculated;
        value           nonuniform List<scalar> 
400
(
4.27323e-19
1.36104e-18
2.38829e-18
3.50476e-18
4.7112e-18
6.01179e-18
7.41064e-18
8.91205e-18
1.05208e-17
1.22422e-17
1.40817e-17
1.60452e-17
1.81387e-17
2.03686e-17
2.27411e-17
2.52629e-17
2.79406e-17
3.0781e-17
3.37909e-17
3.69774e-17
4.03475e-17
4.39086e-17
4.76681e-17
5.16333e-17
5.5812e-17
6.0212e-17
6.48413e-17
6.9708e-17
7.48204e-17
8.01871e-17
8.58166e-17
9.1718e-17
9.79004e-17
1.04373e-16
1.11145e-16
1.18227e-16
1.25628e-16
1.33359e-16
1.41431e-16
1.49853e-16
1.58637e-16
1.67794e-16
1.77336e-16
1.87275e-16
1.97622e-16
2.0839e-16
2.19593e-16
2.31242e-16
2.43352e-16
2.55936e-16
2.69008e-16
2.82583e-16
2.96676e-16
3.11302e-16
3.26476e-16
3.42215e-16
3.58536e-16
3.75455e-16
3.92989e-16
4.11157e-16
4.29977e-16
4.49469e-16
4.6965e-16
4.90542e-16
5.12164e-16
5.34539e-16
5.57686e-16
5.8163e-16
6.06392e-16
6.31997e-16
6.58468e-16
6.8583e-16
7.14108e-16
7.4333e-16
7.73522e-16
8.04711e-16
8.36926e-16
8.70197e-16
9.04554e-16
9.40027e-16
9.76649e-16
1.01445e-15
1.05347e-15
1.09374e-15
1.13529e-15
1.17817e-15
1.2224e-15
1.26804e-15
1.31511e-15
1.36366e-15
1.41373e-15
1.46537e-15
1.51861e-15
1.57352e-15
1.63012e-15
1.68847e-15
1.74862e-15
1.81063e-15
1.87454e-15
1.9404e-15
2.00828e-15
2.07823e-15
2.15031e-15
2.22458e-15
2.3011e-15
2.37993e-15
2.46115e-15
2.54481e-15
2.63099e-15
2.71976e-15
2.8112e-15
2.90536e-15
3.00235e-15
3.10222e-15
3.20507e-15
3.31098e-15
3.42004e-15
3.53233e-15
3.64794e-15
3.76697e-15
3.88952e-15
4.01567e-15
4.14554e-15
4.27923e-15
4.41685e-15
4.55849e-15
4.70429e-15
4.85435e-15
5.00879e-15
5.16773e-15
5.33131e-15
5.49964e-15
5.67287e-15
5.85112e-15
6.03454e-15
6.22327e-15
6.41746e-15
6.61726e-15
6.82282e-15
7.03431e-15
7.25188e-15
7.47571e-15
7.70597e-15
7.94283e-15
8.18647e-15
8.43709e-15
8.69487e-15
8.96002e-15
9.23272e-15
9.51319e-15
9.80165e-15
1.00983e-14
1.04034e-14
1.07171e-14
1.10397e-14
1.13715e-14
1.17126e-14
1.20633e-14
1.2424e-14
1.27948e-14
1.3176e-14
1.3568e-14
1.39709e-14
1.43852e-14
1.4811e-14
1.52488e-14
1.56988e-14
1.61613e-14
1.66368e-14
1.71255e-14
1.76277e-14
1.8144e-14
1.86745e-14
1.92198e-14
1.97801e-14
2.0356e-14
2.09477e-14
2.15558e-14
2.21806e-14
2.28226e-14
2.34822e-14
2.416e-14
2.48563e-14
2.55717e-14
2.63066e-14
2.70616e-14
2.78372e-14
2.86339e-14
2.94523e-14
3.02929e-14
3.11563e-14
3.20431e-14
3.29539e-14
3.38893e-14
3.48499e-14
3.58364e-14
3.68495e-14
3.78898e-14
3.8958e-14
4.00548e-14
4.1181e-14
4.23372e-14
4.35243e-14
4.47431e-14
4.59942e-14
4.72786e-14
4.85971e-14
4.99505e-14
5.13396e-14
5.27655e-14
5.4229e-14
5.57309e-14
5.72724e-14
5.88543e-14
6.04777e-14
6.21435e-14
6.38529e-14
6.56068e-14
6.74065e-14
6.92529e-14
7.11472e-14
7.30906e-14
7.50842e-14
7.71294e-14
7.92273e-14
8.13792e-14
8.35864e-14
8.58502e-14
8.8172e-14
9.05531e-14
9.2995e-14
9.54991e-14
9.80669e-14
1.007e-13
1.034e-13
1.06167e-13
1.09005e-13
1.11915e-13
1.14897e-13
1.17955e-13
1.21089e-13
1.24301e-13
1.27594e-13
1.30968e-13
1.34427e-13
1.37971e-13
1.41604e-13
1.45326e-13
1.4914e-13
1.53047e-13
1.57051e-13
1.61153e-13
1.65356e-13
1.69661e-13
1.74071e-13
1.78588e-13
1.83216e-13
1.87955e-13
1.92808e-13
1.97779e-13
2.0287e-13
2.08082e-13
2.1342e-13
2.18885e-13
2.24481e-13
2.3021e-13
2.36075e-13
2.42079e-13
2.48225e-13
2.54516e-13
2.60955e-13
2.67546e-13
2.74291e-13
2.81193e-13
2.88257e-13
2.95485e-13
3.0288e-13
3.10447e-13
3.18189e-13
3.26109e-13
3.34211e-13
3.42499e-13
3.50976e-13
3.59647e-13
3.68515e-13
3.77585e-13
3.86859e-13
3.96344e-13
4.06041e-13
4.15957e-13
4.26095e-13
4.36459e-13
4.47054e-13
4.57885e-13
4.68956e-13
4.80271e-13
4.91836e-13
5.03654e-13
5.15732e-13
5.28074e-13
5.40684e-13
5.53569e-13
5.66732e-13
5.8018e-13
5.93917e-13
6.07949e-13
6.22281e-13
6.36918e-13
6.51867e-13
6.67133e-13
6.82721e-13
6.98637e-13
7.14887e-13
7.31476e-13
7.48412e-13
7.65699e-13
7.83343e-13
8.01351e-13
8.19729e-13
8.38482e-13
8.57618e-13
8.77142e-13
8.97061e-13
9.1738e-13
9.38107e-13
9.59248e-13
9.80808e-13
1.00279e-12
1.02521e-12
1.04807e-12
1.07138e-12
1.09513e-12
1.11935e-12
1.14402e-12
1.16917e-12
1.1948e-12
1.22091e-12
1.2475e-12
1.27459e-12
1.30218e-12
1.33028e-12
1.35889e-12
1.38801e-12
1.41766e-12
1.44783e-12
1.47852e-12
1.50976e-12
1.54153e-12
1.57384e-12
1.60669e-12
1.64009e-12
1.67403e-12
1.70852e-12
1.74356e-12
1.77915e-12
1.81528e-12
1.85195e-12
1.88916e-12
1.92691e-12
1.96519e-12
2.00398e-12
2.04329e-12
2.0831e-12
2.1234e-12
2.16418e-12
2.20541e-12
2.24708e-12
2.28917e-12
2.33165e-12
2.37449e-12
2.41767e-12
2.46114e-12
2.50487e-12
2.54881e-12
2.59291e-12
2.63713e-12
2.6814e-12
2.72564e-12
2.7698e-12
2.81378e-12
2.85749e-12
2.90085e-12
2.94373e-12
2.98602e-12
3.02758e-12
3.06828e-12
3.10795e-12
3.14641e-12
3.18349e-12
3.21898e-12
3.25265e-12
3.28426e-12
3.31356e-12
3.34025e-12
3.36406e-12
3.38467e-12
3.40175e-12
3.41499e-12
3.42408e-12
3.42872e-12
)
;
    }
}


// ************************************************************************* //
