/*--------------------------------*- C++ -*----------------------------------*\
  =========                 |
  \\      /  F ield         | OpenFOAM: The Open Source CFD Toolbox
   \\    /   O peration     | Website:  https://openfoam.org
    \\  /    A nd           | Version:  dev
     \\/     M anipulation  |
\*---------------------------------------------------------------------------*/
FoamFile
{
    format      ascii;
    class       volScalarField;
    location    "0.76";
    object      N1;
}
// * * * * * * * * * * * * * * * * * * * * * * * * * * * * * * * * * * * * * //

dimensions      [0 0 0 0 0 0 0];

internalField   nonuniform List<scalar> 
8000
(
3.2445e-18
1.03365e-17
1.81413e-17
2.66264e-17
3.57976e-17
4.56871e-17
5.63261e-17
6.77475e-17
7.99881e-17
9.30881e-17
1.0709e-16
1.22039e-16
1.3798e-16
1.54963e-16
1.73036e-16
1.9225e-16
2.12654e-16
2.34303e-16
2.57248e-16
2.81543e-16
3.07243e-16
3.34404e-16
3.63082e-16
3.93336e-16
4.25223e-16
4.58805e-16
4.94143e-16
5.31299e-16
5.70338e-16
6.11325e-16
6.54326e-16
6.99411e-16
7.4665e-16
7.96113e-16
8.47876e-16
9.02012e-16
9.58599e-16
1.01772e-15
1.07944e-15
1.14386e-15
1.21106e-15
1.28112e-15
1.35414e-15
1.4302e-15
1.5094e-15
1.59183e-15
1.6776e-15
1.76679e-15
1.85953e-15
1.95591e-15
2.05604e-15
2.16003e-15
2.268e-15
2.38007e-15
2.49636e-15
2.61698e-15
2.74207e-15
2.87176e-15
3.00619e-15
3.14548e-15
3.28979e-15
3.43926e-15
3.59403e-15
3.75427e-15
3.92012e-15
4.09175e-15
4.26934e-15
4.45304e-15
4.64304e-15
4.83951e-15
5.04265e-15
5.25264e-15
5.46968e-15
5.69397e-15
5.92573e-15
6.16515e-15
6.41247e-15
6.66791e-15
6.9317e-15
7.20408e-15
7.48529e-15
7.77559e-15
8.07524e-15
8.38449e-15
8.70364e-15
9.03295e-15
9.37273e-15
9.72325e-15
1.00848e-14
1.04578e-14
1.08425e-14
1.12392e-14
1.16483e-14
1.20701e-14
1.2505e-14
1.29534e-14
1.34156e-14
1.3892e-14
1.43831e-14
1.48893e-14
1.54109e-14
1.59485e-14
1.65024e-14
1.70732e-14
1.76613e-14
1.82673e-14
1.88915e-14
1.95345e-14
2.0197e-14
2.08793e-14
2.15821e-14
2.2306e-14
2.30515e-14
2.38192e-14
2.46099e-14
2.54241e-14
2.62624e-14
2.71257e-14
2.80145e-14
2.89296e-14
2.98717e-14
3.08416e-14
3.18401e-14
3.28679e-14
3.39259e-14
3.5015e-14
3.61359e-14
3.72897e-14
3.84771e-14
3.96992e-14
4.0957e-14
4.22513e-14
4.35832e-14
4.49538e-14
4.63642e-14
4.78154e-14
4.93086e-14
5.08449e-14
5.24255e-14
5.40517e-14
5.57248e-14
5.74459e-14
5.92165e-14
6.10379e-14
6.29114e-14
6.48386e-14
6.68209e-14
6.88598e-14
7.09569e-14
7.31137e-14
7.53319e-14
7.76132e-14
7.99593e-14
8.23718e-14
8.48528e-14
8.74039e-14
9.00272e-14
9.27246e-14
9.5498e-14
9.83495e-14
1.01281e-13
1.04296e-13
1.07394e-13
1.1058e-13
1.13855e-13
1.17222e-13
1.20682e-13
1.24239e-13
1.27896e-13
1.31654e-13
1.35517e-13
1.39487e-13
1.43567e-13
1.47761e-13
1.5207e-13
1.56499e-13
1.61049e-13
1.65726e-13
1.70531e-13
1.75468e-13
1.80541e-13
1.85754e-13
1.91109e-13
1.96611e-13
2.02263e-13
2.08069e-13
2.14034e-13
2.20161e-13
2.26455e-13
2.3292e-13
2.39561e-13
2.46381e-13
2.53386e-13
2.6058e-13
2.67968e-13
2.75555e-13
2.83346e-13
2.91347e-13
2.99562e-13
3.07998e-13
3.16659e-13
3.25551e-13
3.34681e-13
3.44054e-13
3.53677e-13
3.63555e-13
3.73695e-13
3.84104e-13
3.94788e-13
4.05754e-13
4.17009e-13
4.28561e-13
4.40416e-13
4.52583e-13
4.65068e-13
4.7788e-13
4.91026e-13
5.04516e-13
5.18356e-13
5.32557e-13
5.47126e-13
5.62073e-13
5.77406e-13
5.93135e-13
6.0927e-13
6.2582e-13
6.42796e-13
6.60207e-13
6.78063e-13
6.96377e-13
7.15157e-13
7.34416e-13
7.54165e-13
7.74415e-13
7.95178e-13
8.16467e-13
8.38292e-13
8.60668e-13
8.83607e-13
9.07121e-13
9.31225e-13
9.55932e-13
9.81256e-13
1.00721e-12
1.03381e-12
1.06107e-12
1.08901e-12
1.11763e-12
1.14697e-12
1.17702e-12
1.20781e-12
1.23936e-12
1.27168e-12
1.3048e-12
1.33871e-12
1.37346e-12
1.40904e-12
1.44549e-12
1.48282e-12
1.52105e-12
1.5602e-12
1.60029e-12
1.64135e-12
1.68338e-12
1.72642e-12
1.77048e-12
1.81559e-12
1.86176e-12
1.90903e-12
1.95742e-12
2.00694e-12
2.05763e-12
2.10951e-12
2.16259e-12
2.21692e-12
2.27251e-12
2.32939e-12
2.38759e-12
2.44713e-12
2.50804e-12
2.57035e-12
2.6341e-12
2.6993e-12
2.76599e-12
2.83419e-12
2.90394e-12
2.97528e-12
3.04822e-12
3.12281e-12
3.19907e-12
3.27704e-12
3.35675e-12
3.43824e-12
3.52154e-12
3.60668e-12
3.69371e-12
3.78265e-12
3.87355e-12
3.96644e-12
4.06136e-12
4.15835e-12
4.25744e-12
4.35868e-12
4.46211e-12
4.56776e-12
4.67568e-12
4.78591e-12
4.89849e-12
5.01346e-12
5.13087e-12
5.25076e-12
5.37317e-12
5.49815e-12
5.62574e-12
5.75599e-12
5.88894e-12
6.02464e-12
6.16314e-12
6.30449e-12
6.44872e-12
6.5959e-12
6.74606e-12
6.89925e-12
7.05553e-12
7.21494e-12
7.37753e-12
7.54335e-12
7.71245e-12
7.88488e-12
8.06069e-12
8.23992e-12
8.42262e-12
8.60885e-12
8.79865e-12
8.99207e-12
9.18916e-12
9.38995e-12
9.59451e-12
9.80286e-12
1.00151e-11
1.02312e-11
1.04512e-11
1.06752e-11
1.09032e-11
1.11352e-11
1.13713e-11
1.16115e-11
1.18558e-11
1.21043e-11
1.2357e-11
1.26139e-11
1.28749e-11
1.31402e-11
1.34097e-11
1.36834e-11
1.39613e-11
1.42433e-11
1.45295e-11
1.48199e-11
1.51142e-11
1.54126e-11
1.5715e-11
1.60211e-11
1.63311e-11
1.66447e-11
1.69618e-11
1.72823e-11
1.7606e-11
1.79327e-11
1.82622e-11
1.85942e-11
1.89286e-11
1.92649e-11
1.96029e-11
1.99421e-11
2.02821e-11
2.06226e-11
2.09629e-11
2.13025e-11
2.16407e-11
2.19769e-11
2.23104e-11
2.26402e-11
2.29654e-11
2.32851e-11
2.35981e-11
2.39031e-11
2.4199e-11
2.44842e-11
2.47571e-11
2.5016e-11
2.52592e-11
2.54845e-11
2.56898e-11
2.58729e-11
2.60313e-11
2.61627e-11
2.62645e-11
2.63343e-11
2.637e-11
3.17836e-18
1.01891e-17
1.79281e-17
2.63842e-17
3.55569e-17
4.54676e-17
5.61437e-17
6.76169e-17
7.99235e-17
9.31038e-17
1.07201e-16
1.2226e-16
1.38329e-16
1.55456e-16
1.73693e-16
1.93089e-16
2.13698e-16
2.35573e-16
2.58769e-16
2.8334e-16
3.09343e-16
3.36835e-16
3.65874e-16
3.96521e-16
4.28836e-16
4.6288e-16
4.98717e-16
5.36413e-16
5.76031e-16
6.17642e-16
6.61313e-16
7.07115e-16
7.55121e-16
8.05405e-16
8.58043e-16
9.13111e-16
9.70691e-16
1.03086e-15
1.09371e-15
1.15932e-15
1.22778e-15
1.29917e-15
1.3736e-15
1.45115e-15
1.53192e-15
1.61602e-15
1.70353e-15
1.79457e-15
1.88925e-15
1.98767e-15
2.08994e-15
2.19618e-15
2.30651e-15
2.42106e-15
2.53993e-15
2.66327e-15
2.79121e-15
2.92388e-15
3.06141e-15
3.20396e-15
3.35166e-15
3.50467e-15
3.66314e-15
3.82723e-15
3.9971e-15
4.17293e-15
4.35487e-15
4.54312e-15
4.73784e-15
4.93924e-15
5.14749e-15
5.36279e-15
5.58536e-15
5.81539e-15
6.05311e-15
6.29872e-15
6.55247e-15
6.81457e-15
7.08527e-15
7.36482e-15
7.65346e-15
7.95147e-15
8.25909e-15
8.57662e-15
8.90433e-15
9.24251e-15
9.59146e-15
9.95149e-15
1.03229e-14
1.07061e-14
1.11013e-14
1.15088e-14
1.19292e-14
1.23626e-14
1.28096e-14
1.32704e-14
1.37454e-14
1.42351e-14
1.47399e-14
1.52602e-14
1.57965e-14
1.63492e-14
1.69187e-14
1.75056e-14
1.81103e-14
1.87333e-14
1.93753e-14
2.00366e-14
2.07178e-14
2.14196e-14
2.21424e-14
2.28869e-14
2.36538e-14
2.44435e-14
2.52568e-14
2.60943e-14
2.69568e-14
2.78448e-14
2.87592e-14
2.97007e-14
3.067e-14
3.16679e-14
3.26953e-14
3.37528e-14
3.48415e-14
3.59621e-14
3.71156e-14
3.83028e-14
3.95248e-14
4.07824e-14
4.20767e-14
4.34088e-14
4.47795e-14
4.61901e-14
4.76416e-14
4.91352e-14
5.06719e-14
5.22532e-14
5.38801e-14
5.55539e-14
5.72759e-14
5.90474e-14
6.08699e-14
6.27447e-14
6.46732e-14
6.6657e-14
6.86975e-14
7.07963e-14
7.2955e-14
7.51752e-14
7.74586e-14
7.9807e-14
8.22221e-14
8.47058e-14
8.72598e-14
8.98861e-14
9.25867e-14
9.53636e-14
9.82188e-14
1.01154e-13
1.04173e-13
1.07276e-13
1.10466e-13
1.13746e-13
1.17118e-13
1.20584e-13
1.24147e-13
1.27809e-13
1.31574e-13
1.35443e-13
1.3942e-13
1.43508e-13
1.47709e-13
1.52027e-13
1.56464e-13
1.61023e-13
1.65709e-13
1.70524e-13
1.75472e-13
1.80556e-13
1.85779e-13
1.91146e-13
1.9666e-13
2.02325e-13
2.08145e-13
2.14124e-13
2.20266e-13
2.26575e-13
2.33056e-13
2.39713e-13
2.46551e-13
2.53574e-13
2.60787e-13
2.68195e-13
2.75802e-13
2.83615e-13
2.91638e-13
2.99877e-13
3.08337e-13
3.17023e-13
3.25942e-13
3.351e-13
3.44502e-13
3.54154e-13
3.64063e-13
3.74235e-13
3.84678e-13
3.95397e-13
4.06399e-13
4.17692e-13
4.29283e-13
4.41179e-13
4.53388e-13
4.65917e-13
4.78775e-13
4.91969e-13
5.05508e-13
5.194e-13
5.33654e-13
5.48278e-13
5.63283e-13
5.78676e-13
5.94467e-13
6.10666e-13
6.27283e-13
6.44328e-13
6.61811e-13
6.79742e-13
6.98133e-13
7.16993e-13
7.36336e-13
7.56171e-13
7.7651e-13
7.97366e-13
8.18751e-13
8.40676e-13
8.63155e-13
8.86201e-13
9.09826e-13
9.34045e-13
9.58871e-13
9.84318e-13
1.0104e-12
1.03713e-12
1.06453e-12
1.09261e-12
1.12138e-12
1.15086e-12
1.18108e-12
1.21203e-12
1.24375e-12
1.27625e-12
1.30954e-12
1.34364e-12
1.37858e-12
1.41436e-12
1.45102e-12
1.48856e-12
1.52701e-12
1.56639e-12
1.60672e-12
1.64802e-12
1.6903e-12
1.7336e-12
1.77793e-12
1.82332e-12
1.86978e-12
1.91735e-12
1.96604e-12
2.01588e-12
2.06689e-12
2.11911e-12
2.17254e-12
2.22723e-12
2.28319e-12
2.34045e-12
2.39905e-12
2.459e-12
2.52033e-12
2.58308e-12
2.64727e-12
2.71294e-12
2.7801e-12
2.8488e-12
2.91906e-12
2.99092e-12
3.06441e-12
3.13955e-12
3.21639e-12
3.29495e-12
3.37528e-12
3.45739e-12
3.54134e-12
3.62716e-12
3.71488e-12
3.80453e-12
3.89616e-12
3.98981e-12
4.08551e-12
4.1833e-12
4.28322e-12
4.38531e-12
4.48962e-12
4.59617e-12
4.70502e-12
4.81621e-12
4.92977e-12
5.04576e-12
5.16422e-12
5.28518e-12
5.4087e-12
5.53482e-12
5.66359e-12
5.79505e-12
5.92925e-12
6.06624e-12
6.20606e-12
6.34876e-12
6.4944e-12
6.64301e-12
6.79465e-12
6.94937e-12
7.10722e-12
7.26825e-12
7.43251e-12
7.60004e-12
7.77091e-12
7.94515e-12
8.12282e-12
8.30398e-12
8.48867e-12
8.67694e-12
8.86884e-12
9.06442e-12
9.26374e-12
9.46683e-12
9.67375e-12
9.88455e-12
1.00993e-11
1.03179e-11
1.05406e-11
1.07674e-11
1.09982e-11
1.12332e-11
1.14723e-11
1.17157e-11
1.19632e-11
1.22151e-11
1.24712e-11
1.27316e-11
1.29963e-11
1.32654e-11
1.35389e-11
1.38166e-11
1.40987e-11
1.43852e-11
1.46759e-11
1.4971e-11
1.52703e-11
1.55738e-11
1.58814e-11
1.61931e-11
1.65088e-11
1.68284e-11
1.71517e-11
1.74787e-11
1.78092e-11
1.8143e-11
1.848e-11
1.88198e-11
1.91624e-11
1.95073e-11
1.98542e-11
2.02029e-11
2.05529e-11
2.09039e-11
2.12553e-11
2.16065e-11
2.19571e-11
2.23064e-11
2.26536e-11
2.2998e-11
2.33388e-11
2.36749e-11
2.40054e-11
2.43291e-11
2.46447e-11
2.49509e-11
2.52462e-11
2.5529e-11
2.57975e-11
2.60498e-11
2.62839e-11
2.64974e-11
2.66882e-11
2.68536e-11
2.6991e-11
2.70979e-11
2.71715e-11
2.72094e-11
3.11885e-18
1.00059e-17
1.76013e-17
2.59275e-17
3.49966e-17
4.48266e-17
5.54415e-17
6.68706e-17
7.91486e-17
9.23146e-17
1.06411e-16
1.21484e-16
1.37581e-16
1.54751e-16
1.73045e-16
1.92515e-16
2.13215e-16
2.35198e-16
2.58519e-16
2.83236e-16
3.09406e-16
3.37086e-16
3.66337e-16
3.9722e-16
4.29797e-16
4.64131e-16
5.00286e-16
5.38331e-16
5.78331e-16
6.20357e-16
6.64479e-16
7.10771e-16
7.59306e-16
8.1016e-16
8.63412e-16
9.1914e-16
9.77428e-16
1.03836e-15
1.10202e-15
1.16849e-15
1.23787e-15
1.31025e-15
1.38572e-15
1.46438e-15
1.54633e-15
1.63167e-15
1.72051e-15
1.81294e-15
1.90909e-15
2.00907e-15
2.11298e-15
2.22095e-15
2.3331e-15
2.44955e-15
2.57044e-15
2.69589e-15
2.82604e-15
2.96103e-15
3.101e-15
3.2461e-15
3.39647e-15
3.55227e-15
3.71366e-15
3.8808e-15
4.05385e-15
4.233e-15
4.41841e-15
4.61027e-15
4.80877e-15
5.01409e-15
5.22643e-15
5.44599e-15
5.67298e-15
5.90762e-15
6.15013e-15
6.40072e-15
6.65963e-15
6.92711e-15
7.20338e-15
7.48872e-15
7.78337e-15
8.08761e-15
8.40169e-15
8.72592e-15
9.06057e-15
9.40595e-15
9.76236e-15
1.01301e-14
1.05095e-14
1.09009e-14
1.13047e-14
1.17212e-14
1.21507e-14
1.25936e-14
1.30504e-14
1.35213e-14
1.40068e-14
1.45074e-14
1.50234e-14
1.55553e-14
1.61035e-14
1.66685e-14
1.72508e-14
1.78509e-14
1.84692e-14
1.91063e-14
1.97628e-14
2.0439e-14
2.11357e-14
2.18534e-14
2.25927e-14
2.33542e-14
2.41386e-14
2.49464e-14
2.57783e-14
2.66351e-14
2.75173e-14
2.84258e-14
2.93613e-14
3.03244e-14
3.13161e-14
3.23371e-14
3.33882e-14
3.44703e-14
3.55842e-14
3.67309e-14
3.79112e-14
3.9126e-14
4.03765e-14
4.16634e-14
4.29879e-14
4.4351e-14
4.57538e-14
4.71974e-14
4.86829e-14
5.02114e-14
5.17843e-14
5.34026e-14
5.50677e-14
5.67808e-14
5.85433e-14
6.03565e-14
6.22219e-14
6.41409e-14
6.61148e-14
6.81454e-14
7.0234e-14
7.23824e-14
7.45921e-14
7.68648e-14
7.92023e-14
8.16062e-14
8.40785e-14
8.66209e-14
8.92355e-14
9.19241e-14
9.46887e-14
9.75315e-14
1.00454e-13
1.0346e-13
1.0655e-13
1.09727e-13
1.12993e-13
1.16351e-13
1.19803e-13
1.23351e-13
1.26999e-13
1.30749e-13
1.34603e-13
1.38565e-13
1.42637e-13
1.46822e-13
1.51123e-13
1.55544e-13
1.60087e-13
1.64756e-13
1.69553e-13
1.74483e-13
1.79549e-13
1.84755e-13
1.90103e-13
1.95599e-13
2.01245e-13
2.07046e-13
2.13005e-13
2.19127e-13
2.25416e-13
2.31877e-13
2.38513e-13
2.4533e-13
2.52332e-13
2.59523e-13
2.6691e-13
2.74495e-13
2.82286e-13
2.90287e-13
2.98503e-13
3.06939e-13
3.15603e-13
3.24498e-13
3.33632e-13
3.4301e-13
3.52638e-13
3.62523e-13
3.72671e-13
3.83088e-13
3.93782e-13
4.0476e-13
4.16028e-13
4.27593e-13
4.39464e-13
4.51647e-13
4.64151e-13
4.76983e-13
4.90151e-13
5.03664e-13
5.17531e-13
5.31759e-13
5.46357e-13
5.61336e-13
5.76703e-13
5.92469e-13
6.08643e-13
6.25234e-13
6.42254e-13
6.59712e-13
6.77618e-13
6.95985e-13
7.14821e-13
7.3414e-13
7.53952e-13
7.74268e-13
7.95102e-13
8.16464e-13
8.38368e-13
8.60827e-13
8.83852e-13
9.07459e-13
9.31659e-13
9.56467e-13
9.81897e-13
1.00796e-12
1.03468e-12
1.06206e-12
1.09013e-12
1.11889e-12
1.14837e-12
1.17857e-12
1.20952e-12
1.24123e-12
1.27372e-12
1.30701e-12
1.34112e-12
1.37605e-12
1.41184e-12
1.44851e-12
1.48606e-12
1.52452e-12
1.56391e-12
1.60425e-12
1.64557e-12
1.68788e-12
1.7312e-12
1.77556e-12
1.82097e-12
1.86747e-12
1.91508e-12
1.96381e-12
2.0137e-12
2.06476e-12
2.11703e-12
2.17052e-12
2.22527e-12
2.2813e-12
2.33864e-12
2.39732e-12
2.45735e-12
2.51878e-12
2.58162e-12
2.64592e-12
2.71169e-12
2.77897e-12
2.8478e-12
2.91819e-12
2.99019e-12
3.06382e-12
3.13912e-12
3.21612e-12
3.29485e-12
3.37536e-12
3.45767e-12
3.54182e-12
3.62785e-12
3.71578e-12
3.80567e-12
3.89755e-12
3.99145e-12
4.08742e-12
4.18549e-12
4.28571e-12
4.38811e-12
4.49274e-12
4.59963e-12
4.70883e-12
4.82039e-12
4.93434e-12
5.05073e-12
5.1696e-12
5.29101e-12
5.41498e-12
5.54158e-12
5.67084e-12
5.80282e-12
5.93756e-12
6.07511e-12
6.21552e-12
6.35883e-12
6.5051e-12
6.65437e-12
6.8067e-12
6.96214e-12
7.12073e-12
7.28253e-12
7.44759e-12
7.61597e-12
7.7877e-12
7.96285e-12
8.14147e-12
8.32361e-12
8.50932e-12
8.69865e-12
8.89166e-12
9.08839e-12
9.2889e-12
9.49324e-12
9.70145e-12
9.9136e-12
1.01297e-11
1.03499e-11
1.05741e-11
1.08024e-11
1.10349e-11
1.12716e-11
1.15125e-11
1.17577e-11
1.20072e-11
1.22611e-11
1.25193e-11
1.2782e-11
1.30491e-11
1.33206e-11
1.35965e-11
1.3877e-11
1.41619e-11
1.44513e-11
1.47451e-11
1.50433e-11
1.5346e-11
1.5653e-11
1.59644e-11
1.628e-11
1.65998e-11
1.69238e-11
1.72517e-11
1.75836e-11
1.79192e-11
1.82584e-11
1.86011e-11
1.8947e-11
1.9296e-11
1.96477e-11
2.00019e-11
2.03583e-11
2.07165e-11
2.10761e-11
2.14367e-11
2.17979e-11
2.2159e-11
2.25195e-11
2.28788e-11
2.32361e-11
2.35906e-11
2.39414e-11
2.42877e-11
2.46282e-11
2.4962e-11
2.52876e-11
2.56038e-11
2.5909e-11
2.62015e-11
2.64796e-11
2.67412e-11
2.69843e-11
2.72066e-11
2.74055e-11
2.75785e-11
2.77229e-11
2.78356e-11
2.79137e-11
2.79542e-11
3.05966e-18
9.81396e-18
1.72514e-17
2.54108e-17
3.43197e-17
4.40022e-17
5.44842e-17
6.57957e-17
7.79711e-17
9.10488e-17
1.05071e-16
1.20083e-16
1.36132e-16
1.53267e-16
1.71539e-16
1.91e-16
2.11705e-16
2.33706e-16
2.57062e-16
2.81827e-16
3.0806e-16
3.35822e-16
3.65171e-16
3.96171e-16
4.28884e-16
4.63375e-16
4.99711e-16
5.37958e-16
5.78186e-16
6.20465e-16
6.64869e-16
7.11471e-16
7.60347e-16
8.11575e-16
8.65235e-16
9.21408e-16
9.80177e-16
1.04163e-15
1.10585e-15
1.17293e-15
1.24296e-15
1.31604e-15
1.39226e-15
1.47172e-15
1.55452e-15
1.64077e-15
1.73057e-15
1.82404e-15
1.92128e-15
2.02241e-15
2.12754e-15
2.23681e-15
2.35033e-15
2.46823e-15
2.59064e-15
2.7177e-15
2.84954e-15
2.9863e-15
3.12814e-15
3.27519e-15
3.42762e-15
3.58558e-15
3.74923e-15
3.91873e-15
4.09427e-15
4.276e-15
4.46412e-15
4.65881e-15
4.86025e-15
5.06865e-15
5.2842e-15
5.50712e-15
5.7376e-15
5.97587e-15
6.22216e-15
6.47669e-15
6.73969e-15
7.01143e-15
7.29213e-15
7.58207e-15
7.88149e-15
8.19069e-15
8.50993e-15
8.8395e-15
9.17969e-15
9.53082e-15
9.89318e-15
1.02671e-14
1.06529e-14
1.1051e-14
1.14616e-14
1.18852e-14
1.2322e-14
1.27726e-14
1.32372e-14
1.37163e-14
1.42103e-14
1.47196e-14
1.52446e-14
1.57859e-14
1.63437e-14
1.69187e-14
1.75113e-14
1.8122e-14
1.87513e-14
1.93998e-14
2.00679e-14
2.07563e-14
2.14655e-14
2.21961e-14
2.29487e-14
2.3724e-14
2.45225e-14
2.53449e-14
2.6192e-14
2.70643e-14
2.79626e-14
2.88877e-14
2.98402e-14
3.0821e-14
3.18309e-14
3.28706e-14
3.3941e-14
3.5043e-14
3.61774e-14
3.73452e-14
3.85473e-14
3.97846e-14
4.10582e-14
4.2369e-14
4.3718e-14
4.51064e-14
4.65353e-14
4.80057e-14
4.95189e-14
5.10759e-14
5.26781e-14
5.43266e-14
5.60228e-14
5.7768e-14
5.95634e-14
6.14106e-14
6.3311e-14
6.52659e-14
6.7277e-14
6.93457e-14
7.14736e-14
7.36623e-14
7.59136e-14
7.82292e-14
8.06107e-14
8.306e-14
8.55789e-14
8.81694e-14
9.08333e-14
9.35727e-14
9.63897e-14
9.92863e-14
1.02265e-13
1.05327e-13
1.08476e-13
1.11713e-13
1.15041e-13
1.18463e-13
1.2198e-13
1.25596e-13
1.29313e-13
1.33134e-13
1.37062e-13
1.41099e-13
1.45249e-13
1.49514e-13
1.53897e-13
1.58402e-13
1.63032e-13
1.6779e-13
1.72679e-13
1.77703e-13
1.82866e-13
1.88171e-13
1.93622e-13
1.99223e-13
2.04977e-13
2.10889e-13
2.16962e-13
2.23202e-13
2.29612e-13
2.36196e-13
2.4296e-13
2.49908e-13
2.57044e-13
2.64374e-13
2.71902e-13
2.79634e-13
2.87575e-13
2.95729e-13
3.04104e-13
3.12703e-13
3.21534e-13
3.30601e-13
3.39911e-13
3.4947e-13
3.59284e-13
3.69359e-13
3.79704e-13
3.90323e-13
4.01223e-13
4.12413e-13
4.23899e-13
4.35689e-13
4.47789e-13
4.60209e-13
4.72955e-13
4.86036e-13
4.9946e-13
5.13235e-13
5.27371e-13
5.41875e-13
5.56758e-13
5.72027e-13
5.87694e-13
6.03766e-13
6.20255e-13
6.37169e-13
6.54521e-13
6.72319e-13
6.90575e-13
7.09299e-13
7.28504e-13
7.48199e-13
7.68398e-13
7.89111e-13
8.10352e-13
8.32133e-13
8.54465e-13
8.77363e-13
9.0084e-13
9.24908e-13
9.49583e-13
9.74877e-13
1.00081e-12
1.02738e-12
1.05463e-12
1.08255e-12
1.11116e-12
1.14049e-12
1.17055e-12
1.20134e-12
1.2329e-12
1.26524e-12
1.29837e-12
1.33232e-12
1.36709e-12
1.40272e-12
1.43922e-12
1.4766e-12
1.51489e-12
1.55412e-12
1.59429e-12
1.63543e-12
1.67756e-12
1.7207e-12
1.76488e-12
1.81012e-12
1.85644e-12
1.90386e-12
1.95241e-12
2.00211e-12
2.05299e-12
2.10507e-12
2.15837e-12
2.21293e-12
2.26877e-12
2.32592e-12
2.3844e-12
2.44424e-12
2.50547e-12
2.56813e-12
2.63223e-12
2.6978e-12
2.76489e-12
2.83352e-12
2.90372e-12
2.97552e-12
3.04896e-12
3.12406e-12
3.20087e-12
3.27942e-12
3.35973e-12
3.44185e-12
3.52582e-12
3.61166e-12
3.69941e-12
3.78912e-12
3.88082e-12
3.97454e-12
4.07034e-12
4.16824e-12
4.26829e-12
4.37053e-12
4.47499e-12
4.58173e-12
4.69079e-12
4.8022e-12
4.91601e-12
5.03227e-12
5.15101e-12
5.2723e-12
5.39616e-12
5.52265e-12
5.65182e-12
5.78371e-12
5.91837e-12
6.05585e-12
6.1962e-12
6.33946e-12
6.4857e-12
6.63495e-12
6.78727e-12
6.94271e-12
7.10132e-12
7.26315e-12
7.42827e-12
7.59671e-12
7.76853e-12
7.94379e-12
8.12253e-12
8.30482e-12
8.4907e-12
8.68022e-12
8.87345e-12
9.07044e-12
9.27122e-12
9.47587e-12
9.68443e-12
9.89695e-12
1.01135e-11
1.03341e-11
1.05588e-11
1.07877e-11
1.10207e-11
1.12581e-11
1.14997e-11
1.17456e-11
1.1996e-11
1.22507e-11
1.25099e-11
1.27736e-11
1.30417e-11
1.33144e-11
1.35917e-11
1.38735e-11
1.41598e-11
1.44508e-11
1.47463e-11
1.50464e-11
1.5351e-11
1.56602e-11
1.59738e-11
1.62919e-11
1.66143e-11
1.69411e-11
1.7272e-11
1.76072e-11
1.79463e-11
1.82893e-11
1.8636e-11
1.89863e-11
1.934e-11
1.96968e-11
2.00565e-11
2.04187e-11
2.07833e-11
2.11498e-11
2.15178e-11
2.1887e-11
2.22567e-11
2.26266e-11
2.29959e-11
2.3364e-11
2.37303e-11
2.40938e-11
2.44538e-11
2.48092e-11
2.5159e-11
2.5502e-11
2.58369e-11
2.61624e-11
2.64769e-11
2.67787e-11
2.70659e-11
2.73366e-11
2.75886e-11
2.78195e-11
2.80267e-11
2.82076e-11
2.8359e-11
2.84778e-11
2.85607e-11
2.8604e-11
3.00378e-18
9.63181e-18
1.692e-17
2.49108e-17
3.36425e-17
4.31478e-17
5.34586e-17
6.46085e-17
7.66339e-17
8.95741e-17
1.03472e-16
1.18371e-16
1.3432e-16
1.51367e-16
1.69563e-16
1.8896e-16
2.09611e-16
2.3157e-16
2.54894e-16
2.79641e-16
3.05867e-16
3.33634e-16
3.63002e-16
3.94034e-16
4.26795e-16
4.61348e-16
4.97763e-16
5.36106e-16
5.76449e-16
6.18863e-16
6.63422e-16
7.10202e-16
7.59279e-16
8.10733e-16
8.64644e-16
9.21096e-16
9.80173e-16
1.04196e-15
1.10655e-15
1.17404e-15
1.24451e-15
1.31806e-15
1.3948e-15
1.47481e-15
1.55822e-15
1.64511e-15
1.7356e-15
1.8298e-15
1.92782e-15
2.02979e-15
2.13582e-15
2.24603e-15
2.36055e-15
2.47952e-15
2.60306e-15
2.73131e-15
2.8644e-15
3.0025e-15
3.14573e-15
3.29426e-15
3.44824e-15
3.60783e-15
3.77319e-15
3.9445e-15
4.12191e-15
4.30563e-15
4.49582e-15
4.69267e-15
4.89638e-15
5.10715e-15
5.32518e-15
5.55067e-15
5.78385e-15
6.02494e-15
6.27416e-15
6.53174e-15
6.79793e-15
7.07298e-15
7.35713e-15
7.65065e-15
7.95381e-15
8.26688e-15
8.59015e-15
8.9239e-15
9.26844e-15
9.62407e-15
9.99111e-15
1.03699e-14
1.07608e-14
1.1164e-14
1.15801e-14
1.20092e-14
1.24519e-14
1.29085e-14
1.33793e-14
1.38649e-14
1.43655e-14
1.48817e-14
1.54139e-14
1.59625e-14
1.6528e-14
1.71109e-14
1.77117e-14
1.83308e-14
1.89688e-14
1.96263e-14
2.03038e-14
2.10018e-14
2.17209e-14
2.24618e-14
2.3225e-14
2.40111e-14
2.48209e-14
2.5655e-14
2.65141e-14
2.73988e-14
2.83099e-14
2.92482e-14
3.02143e-14
3.12092e-14
3.22335e-14
3.32882e-14
3.4374e-14
3.54919e-14
3.66427e-14
3.78274e-14
3.90468e-14
4.03021e-14
4.15941e-14
4.2924e-14
4.42927e-14
4.57013e-14
4.7151e-14
4.86429e-14
5.01782e-14
5.1758e-14
5.33837e-14
5.50564e-14
5.67775e-14
5.85483e-14
6.03702e-14
6.22446e-14
6.41729e-14
6.61567e-14
6.81974e-14
7.02967e-14
7.24561e-14
7.46772e-14
7.69619e-14
7.93117e-14
8.17286e-14
8.42143e-14
8.67706e-14
8.93996e-14
9.21032e-14
9.48834e-14
9.77423e-14
1.00682e-13
1.03705e-13
1.06813e-13
1.10009e-13
1.13294e-13
1.16672e-13
1.20145e-13
1.23715e-13
1.27385e-13
1.31158e-13
1.35037e-13
1.39023e-13
1.43121e-13
1.47333e-13
1.51662e-13
1.56112e-13
1.60684e-13
1.65384e-13
1.70213e-13
1.75177e-13
1.80277e-13
1.85518e-13
1.90903e-13
1.96436e-13
2.02121e-13
2.07963e-13
2.13964e-13
2.2013e-13
2.26464e-13
2.32971e-13
2.39655e-13
2.46522e-13
2.53575e-13
2.6082e-13
2.68261e-13
2.75904e-13
2.83753e-13
2.91815e-13
3.00094e-13
3.08596e-13
3.17326e-13
3.26292e-13
3.35497e-13
3.44949e-13
3.54654e-13
3.64619e-13
3.74849e-13
3.85351e-13
3.96133e-13
4.07201e-13
4.18562e-13
4.30224e-13
4.42195e-13
4.54481e-13
4.67091e-13
4.80033e-13
4.93315e-13
5.06946e-13
5.20934e-13
5.35287e-13
5.50015e-13
5.65127e-13
5.80632e-13
5.9654e-13
6.12861e-13
6.29604e-13
6.4678e-13
6.644e-13
6.82474e-13
7.01012e-13
7.20027e-13
7.39529e-13
7.5953e-13
7.80042e-13
8.01078e-13
8.22648e-13
8.44767e-13
8.67447e-13
8.90702e-13
9.14544e-13
9.38987e-13
9.64046e-13
9.89735e-13
1.01607e-12
1.04306e-12
1.07073e-12
1.09909e-12
1.12815e-12
1.15794e-12
1.18846e-12
1.21974e-12
1.2518e-12
1.28464e-12
1.31829e-12
1.35277e-12
1.38809e-12
1.42428e-12
1.46135e-12
1.49933e-12
1.53822e-12
1.57806e-12
1.61887e-12
1.66066e-12
1.70345e-12
1.74728e-12
1.79216e-12
1.83811e-12
1.88516e-12
1.93333e-12
1.98265e-12
2.03314e-12
2.08483e-12
2.13773e-12
2.19189e-12
2.24731e-12
2.30404e-12
2.3621e-12
2.42151e-12
2.4823e-12
2.54451e-12
2.60816e-12
2.67329e-12
2.73991e-12
2.80807e-12
2.8778e-12
2.94912e-12
3.02208e-12
3.09669e-12
3.173e-12
3.25104e-12
3.33085e-12
3.41245e-12
3.4959e-12
3.58121e-12
3.66843e-12
3.7576e-12
3.84876e-12
3.94194e-12
4.03718e-12
4.13452e-12
4.234e-12
4.33567e-12
4.43956e-12
4.54573e-12
4.6542e-12
4.76502e-12
4.87824e-12
4.9939e-12
5.11205e-12
5.23273e-12
5.35599e-12
5.48188e-12
5.61043e-12
5.74171e-12
5.87575e-12
6.01262e-12
6.15235e-12
6.29499e-12
6.44061e-12
6.58924e-12
6.74094e-12
6.89576e-12
7.05376e-12
7.21498e-12
7.37949e-12
7.54732e-12
7.71855e-12
7.89321e-12
8.07136e-12
8.25307e-12
8.43838e-12
8.62734e-12
8.82002e-12
9.01646e-12
9.21672e-12
9.42085e-12
9.62892e-12
9.84096e-12
1.0057e-11
1.02772e-11
1.05015e-11
1.073e-11
1.09627e-11
1.11997e-11
1.1441e-11
1.16867e-11
1.19368e-11
1.21914e-11
1.24505e-11
1.27141e-11
1.29822e-11
1.3255e-11
1.35323e-11
1.38143e-11
1.4101e-11
1.43923e-11
1.46883e-11
1.49889e-11
1.52942e-11
1.56042e-11
1.59187e-11
1.62379e-11
1.65615e-11
1.68897e-11
1.72223e-11
1.75592e-11
1.79003e-11
1.82455e-11
1.85948e-11
1.89478e-11
1.93046e-11
1.96648e-11
2.00282e-11
2.03947e-11
2.07638e-11
2.11353e-11
2.15089e-11
2.18842e-11
2.22606e-11
2.26378e-11
2.30151e-11
2.3392e-11
2.37679e-11
2.4142e-11
2.45134e-11
2.48814e-11
2.52449e-11
2.56029e-11
2.59542e-11
2.62975e-11
2.66314e-11
2.69543e-11
2.72645e-11
2.75602e-11
2.78394e-11
2.80997e-11
2.83388e-11
2.85539e-11
2.87423e-11
2.89006e-11
2.90254e-11
2.91129e-11
2.9159e-11
2.95431e-18
9.47e-18
1.66255e-17
2.44628e-17
3.30251e-17
4.23524e-17
5.24836e-17
6.34573e-17
7.53135e-17
8.80939e-17
1.01842e-16
1.16603e-16
1.32425e-16
1.49355e-16
1.67445e-16
1.86745e-16
2.07309e-16
2.2919e-16
2.52446e-16
2.77132e-16
3.03308e-16
3.31034e-16
3.60371e-16
3.91382e-16
4.24131e-16
4.58685e-16
4.95112e-16
5.3348e-16
5.73862e-16
6.16329e-16
6.60956e-16
7.0782e-16
7.56999e-16
8.08573e-16
8.62624e-16
9.19237e-16
9.78496e-16
1.04049e-15
1.10531e-15
1.17305e-15
1.2438e-15
1.31767e-15
1.39474e-15
1.47513e-15
1.55893e-15
1.64626e-15
1.73722e-15
1.83193e-15
1.9305e-15
2.03305e-15
2.13971e-15
2.25059e-15
2.36583e-15
2.48556e-15
2.60991e-15
2.73902e-15
2.87303e-15
3.01209e-15
3.15635e-15
3.30596e-15
3.46108e-15
3.62187e-15
3.7885e-15
3.96113e-15
4.13996e-15
4.32514e-15
4.51688e-15
4.71535e-15
4.92076e-15
5.13331e-15
5.3532e-15
5.58064e-15
5.81586e-15
6.05907e-15
6.31051e-15
6.57041e-15
6.83902e-15
7.11658e-15
7.40336e-15
7.69962e-15
8.00562e-15
8.32165e-15
8.64799e-15
8.98495e-15
9.33281e-15
9.6919e-15
1.00625e-14
1.0445e-14
1.08398e-14
1.12471e-14
1.16673e-14
1.21007e-14
1.25479e-14
1.30091e-14
1.34848e-14
1.39753e-14
1.44811e-14
1.50026e-14
1.55403e-14
1.60946e-14
1.6666e-14
1.7255e-14
1.78621e-14
1.84878e-14
1.91326e-14
1.97971e-14
2.04818e-14
2.11872e-14
2.19141e-14
2.26629e-14
2.34343e-14
2.4229e-14
2.50476e-14
2.58907e-14
2.67591e-14
2.76535e-14
2.85746e-14
2.95231e-14
3.04999e-14
3.15057e-14
3.25413e-14
3.36077e-14
3.47055e-14
3.58358e-14
3.69993e-14
3.81972e-14
3.94303e-14
4.06995e-14
4.2006e-14
4.33507e-14
4.47348e-14
4.61592e-14
4.76252e-14
4.91339e-14
5.06865e-14
5.22841e-14
5.39281e-14
5.56197e-14
5.73603e-14
5.91512e-14
6.09938e-14
6.28894e-14
6.48397e-14
6.68461e-14
6.89101e-14
7.10333e-14
7.32173e-14
7.54638e-14
7.77746e-14
8.01514e-14
8.25959e-14
8.51101e-14
8.76958e-14
9.0355e-14
9.30896e-14
9.59018e-14
9.87937e-14
1.01767e-13
1.04825e-13
1.07969e-13
1.11201e-13
1.14525e-13
1.17942e-13
1.21455e-13
1.25067e-13
1.2878e-13
1.32596e-13
1.3652e-13
1.40553e-13
1.44698e-13
1.48959e-13
1.53338e-13
1.5784e-13
1.62466e-13
1.6722e-13
1.72106e-13
1.77127e-13
1.82287e-13
1.87589e-13
1.93037e-13
1.98635e-13
2.04387e-13
2.10297e-13
2.16369e-13
2.22607e-13
2.29016e-13
2.35599e-13
2.42363e-13
2.4931e-13
2.56446e-13
2.63776e-13
2.71305e-13
2.79038e-13
2.86981e-13
2.95137e-13
3.03514e-13
3.12117e-13
3.20951e-13
3.30022e-13
3.39337e-13
3.48901e-13
3.58721e-13
3.68804e-13
3.79156e-13
3.89783e-13
4.00693e-13
4.11893e-13
4.23389e-13
4.35191e-13
4.47304e-13
4.59737e-13
4.72498e-13
4.85595e-13
4.99036e-13
5.12829e-13
5.26984e-13
5.4151e-13
5.56414e-13
5.71708e-13
5.87399e-13
6.03498e-13
6.20015e-13
6.3696e-13
6.54343e-13
6.72175e-13
6.90467e-13
7.09229e-13
7.28473e-13
7.48211e-13
7.68453e-13
7.89214e-13
8.10504e-13
8.32336e-13
8.54723e-13
8.77678e-13
9.01214e-13
9.25346e-13
9.50087e-13
9.7545e-13
1.00145e-12
1.02811e-12
1.05543e-12
1.08343e-12
1.11214e-12
1.14156e-12
1.17171e-12
1.2026e-12
1.23427e-12
1.26671e-12
1.29996e-12
1.33403e-12
1.36893e-12
1.40468e-12
1.44132e-12
1.47884e-12
1.51728e-12
1.55666e-12
1.59699e-12
1.6383e-12
1.6806e-12
1.72393e-12
1.7683e-12
1.81373e-12
1.86025e-12
1.90789e-12
1.95666e-12
2.00659e-12
2.0577e-12
2.11003e-12
2.1636e-12
2.21842e-12
2.27454e-12
2.33198e-12
2.39076e-12
2.45091e-12
2.51246e-12
2.57545e-12
2.6399e-12
2.70584e-12
2.7733e-12
2.84232e-12
2.91292e-12
2.98514e-12
3.05901e-12
3.13456e-12
3.21183e-12
3.29086e-12
3.37167e-12
3.45431e-12
3.5388e-12
3.6252e-12
3.71352e-12
3.80382e-12
3.89613e-12
3.99049e-12
4.08694e-12
4.18552e-12
4.28627e-12
4.38924e-12
4.49445e-12
4.60197e-12
4.71183e-12
4.82407e-12
4.93874e-12
5.05588e-12
5.17554e-12
5.29777e-12
5.42261e-12
5.55011e-12
5.68032e-12
5.81329e-12
5.94906e-12
6.08769e-12
6.22922e-12
6.37371e-12
6.52121e-12
6.67177e-12
6.82544e-12
6.98227e-12
7.14232e-12
7.30564e-12
7.47228e-12
7.64231e-12
7.81576e-12
7.99271e-12
8.17319e-12
8.35728e-12
8.54501e-12
8.73646e-12
8.93167e-12
9.13069e-12
9.33359e-12
9.54042e-12
9.75123e-12
9.96608e-12
1.0185e-11
1.04081e-11
1.06354e-11
1.08669e-11
1.11027e-11
1.13429e-11
1.15875e-11
1.18365e-11
1.20899e-11
1.23479e-11
1.26105e-11
1.28777e-11
1.31494e-11
1.34259e-11
1.37071e-11
1.39929e-11
1.42835e-11
1.45788e-11
1.48789e-11
1.51837e-11
1.54932e-11
1.58075e-11
1.61264e-11
1.64501e-11
1.67783e-11
1.71111e-11
1.74484e-11
1.77902e-11
1.81362e-11
1.84865e-11
1.88408e-11
1.91991e-11
1.95611e-11
1.99267e-11
2.02956e-11
2.06676e-11
2.10425e-11
2.14198e-11
2.17993e-11
2.21805e-11
2.2563e-11
2.29463e-11
2.333e-11
2.37133e-11
2.40956e-11
2.44763e-11
2.48545e-11
2.52293e-11
2.55997e-11
2.59647e-11
2.63231e-11
2.66736e-11
2.70148e-11
2.73451e-11
2.76628e-11
2.7966e-11
2.82526e-11
2.85204e-11
2.87668e-11
2.89891e-11
2.91843e-11
2.93489e-11
2.94792e-11
2.9571e-11
2.96197e-11
2.91286e-18
9.33437e-18
1.63791e-17
2.40865e-17
3.25018e-17
4.16702e-17
5.16359e-17
6.2443e-17
7.41357e-17
8.67584e-17
1.00357e-16
1.14977e-16
1.30666e-16
1.47473e-16
1.65448e-16
1.84642e-16
2.05108e-16
2.26898e-16
2.5007e-16
2.7468e-16
3.00785e-16
3.28448e-16
3.57728e-16
3.88689e-16
4.21397e-16
4.55917e-16
4.92318e-16
5.3067e-16
5.71045e-16
6.13515e-16
6.58157e-16
7.05046e-16
7.54264e-16
8.05889e-16
8.60006e-16
9.16698e-16
9.76054e-16
1.03816e-15
1.10311e-15
1.171e-15
1.24192e-15
1.31598e-15
1.39326e-15
1.47388e-15
1.55794e-15
1.64555e-15
1.73682e-15
1.83187e-15
1.93081e-15
2.03375e-15
2.14084e-15
2.25218e-15
2.36791e-15
2.48816e-15
2.61308e-15
2.74279e-15
2.87744e-15
3.01718e-15
3.16216e-15
3.31254e-15
3.46847e-15
3.63012e-15
3.79766e-15
3.97125e-15
4.15108e-15
4.33733e-15