/*--------------------------------*- C++ -*----------------------------------*\
  =========                 |
  \\      /  F ield         | OpenFOAM: The Open Source CFD Toolbox
   \\    /   O peration     | Website:  https://openfoam.org
    \\  /    A nd           | Version:  dev
     \\/     M anipulation  |
\*---------------------------------------------------------------------------*/
FoamFile
{
    format      ascii;
    class       volScalarField;
    location    "0.7";
    object      Exp1;
}
// * * * * * * * * * * * * * * * * * * * * * * * * * * * * * * * * * * * * * //

dimensions      [0 0 0 0 0 0 0];

internalField   uniform 0;

boundaryField
{
    frontAndBack
    {
        type            empty;
    }
    inlet
    {
        type            calculated;
        value           uniform 0;
    }
    outlet
    {
        type            calculated;
        value           uniform 0;
    }
    substrate
    {
        type            calculated;
        value           nonuniform List<scalar> 
400
(
1.07267e-17
3.41651e-17
5.99512e-17
8.79769e-17
1.18261e-16
1.50908e-16
1.86021e-16
2.23708e-16
2.6409e-16
3.07297e-16
3.5347e-16
4.02753e-16
4.553e-16
5.11267e-16
5.70814e-16
6.34105e-16
7.01307e-16
7.72589e-16
8.48125e-16
9.2809e-16
1.01266e-15
1.10202e-15
1.19635e-15
1.29585e-15
1.40069e-15
1.51109e-15
1.62723e-15
1.74932e-15
1.87757e-15
2.01219e-15
2.1534e-15
2.30142e-15
2.45648e-15
2.61881e-15
2.78865e-15
2.96624e-15
3.15183e-15
3.34568e-15
3.54804e-15
3.75919e-15
3.9794e-15
4.20895e-15
4.44812e-15
4.69722e-15
4.95654e-15
5.2264e-15
5.50711e-15
5.79899e-15
6.10239e-15
6.41764e-15
6.74509e-15
7.08511e-15
7.43806e-15
7.80432e-15
8.18429e-15
8.57835e-15
8.98693e-15
9.41044e-15
9.84932e-15
1.0304e-14
1.07749e-14
1.12626e-14
1.17675e-14
1.22901e-14
1.28309e-14
1.33904e-14
1.39692e-14
1.45678e-14
1.51868e-14
1.58268e-14
1.64883e-14
1.7172e-14
1.78784e-14
1.86084e-14
1.93624e-14
2.01412e-14
2.09455e-14
2.1776e-14
2.26334e-14
2.35186e-14
2.44323e-14
2.53752e-14
2.63483e-14
2.73523e-14
2.83882e-14
2.94568e-14
3.05591e-14
3.1696e-14
3.28685e-14
3.40775e-14
3.53241e-14
3.66094e-14
3.79345e-14
3.93004e-14
4.07083e-14
4.21593e-14
4.36547e-14
4.51958e-14
4.67838e-14
4.84199e-14
5.01056e-14
5.18423e-14
5.36312e-14
5.5474e-14
5.73721e-14
5.93271e-14
6.13404e-14
6.34139e-14
6.5549e-14
6.77475e-14
7.00112e-14
7.23419e-14
7.47415e-14
7.72117e-14
7.97547e-14
8.23723e-14
8.50667e-14
8.784e-14
9.06942e-14
9.36318e-14
9.66549e-14
9.97658e-14
1.02967e-13
1.06261e-13
1.0965e-13
1.13138e-13
1.16725e-13
1.20416e-13
1.24214e-13
1.2812e-13
1.32138e-13
1.36271e-13
1.40522e-13
1.44895e-13
1.49392e-13
1.54017e-13
1.58773e-13
1.63665e-13
1.68695e-13
1.73867e-13
1.79185e-13
1.84653e-13
1.90275e-13
1.96055e-13
2.01997e-13
2.08106e-13
2.14386e-13
2.20842e-13
2.27478e-13
2.34298e-13
2.41309e-13
2.48514e-13
2.55919e-13
2.6353e-13
2.71351e-13
2.79388e-13
2.87647e-13
2.96133e-13
3.04853e-13
3.13812e-13
3.23017e-13
3.32474e-13
3.42189e-13
3.5217e-13
3.62423e-13
3.72955e-13
3.83773e-13
3.94885e-13
4.06297e-13
4.18018e-13
4.30056e-13
4.42419e-13
4.55114e-13
4.6815e-13
4.81537e-13
4.95282e-13
5.09394e-13
5.23884e-13
5.3876e-13
5.54031e-13
5.69709e-13
5.85802e-13
6.02322e-13
6.19278e-13
6.36682e-13
6.54545e-13
6.72877e-13
6.91691e-13
7.10998e-13
7.3081e-13
7.5114e-13
7.71999e-13
7.93402e-13
8.1536e-13
8.37888e-13
8.60999e-13
8.84707e-13
9.09027e-13
9.33972e-13
9.59559e-13
9.85801e-13
1.01272e-12
1.04032e-12
1.06862e-12
1.09765e-12
1.12741e-12
1.15793e-12
1.18921e-12
1.22129e-12
1.25418e-12
1.28789e-12
1.32245e-12
1.35788e-12
1.39418e-12
1.4314e-12
1.46954e-12
1.50863e-12
1.54868e-12
1.58973e-12
1.63179e-12
1.67488e-12
1.71903e-12
1.76426e-12
1.8106e-12
1.85807e-12
1.9067e-12
1.9565e-12
2.00751e-12
2.05976e-12
2.11326e-12
2.16806e-12
2.22416e-12
2.28161e-12
2.34044e-12
2.40066e-12
2.46232e-12
2.52544e-12
2.59005e-12
2.65618e-12
2.72387e-12
2.79316e-12
2.86406e-12
2.93662e-12
3.01087e-12
3.08684e-12
3.16458e-12
3.24411e-12
3.32548e-12
3.40872e-12
3.49386e-12
3.58096e-12
3.67004e-12
3.76114e-12
3.85432e-12
3.9496e-12
4.04703e-12
4.14665e-12
4.2485e-12
4.35264e-12
4.45909e-12
4.56792e-12
4.67915e-12
4.79285e-12
4.90905e-12
5.02781e-12
5.14917e-12
5.27318e-12
5.39989e-12
5.52935e-12
5.66161e-12
5.79673e-12
5.93476e-12
6.07574e-12
6.21974e-12
6.36681e-12
6.517e-12
6.67038e-12
6.82698e-12
6.98689e-12
7.15015e-12
7.31681e-12
7.48695e-12
7.66062e-12
7.83789e-12
8.0188e-12
8.20344e-12
8.39185e-12
8.58411e-12
8.78028e-12
8.98042e-12
9.18461e-12
9.39289e-12
9.60536e-12
9.82206e-12
1.00431e-11
1.02685e-11
1.04983e-11
1.07327e-11
1.09717e-11
1.12153e-11
1.14636e-11
1.17168e-11
1.19749e-11
1.22379e-11
1.2506e-11
1.27791e-11
1.30575e-11
1.33411e-11
1.363e-11
1.39244e-11
1.42242e-11
1.45297e-11
1.48408e-11
1.51576e-11
1.54802e-11
1.58087e-11
1.61432e-11
1.64837e-11
1.68304e-11
1.71832e-11
1.75424e-11
1.79079e-11
1.82799e-11
1.86584e-11
1.90435e-11
1.94353e-11
1.98338e-11
2.02392e-11
2.06515e-11
2.10709e-11
2.14973e-11
2.19308e-11
2.23716e-11
2.28196e-11
2.3275e-11
2.37379e-11
2.42082e-11
2.46861e-11
2.51717e-11
2.56649e-11
2.61658e-11
2.66746e-11
2.71911e-11
2.77156e-11
2.8248e-11
2.87883e-11
2.93366e-11
2.98929e-11
3.04573e-11
3.10297e-11
3.16101e-11
3.21985e-11
3.27949e-11
3.33993e-11
3.40115e-11
3.46317e-11
3.52596e-11
3.58953e-11
3.65385e-11
3.71892e-11
3.78472e-11
3.85123e-11
3.91844e-11
3.98632e-11
4.05485e-11
4.12399e-11
4.19372e-11
4.264e-11
4.33479e-11
4.40603e-11
4.47769e-11
4.54969e-11
4.62199e-11
4.6945e-11
4.76715e-11
4.83986e-11
4.91251e-11
4.98503e-11
5.05727e-11
5.12912e-11
5.20043e-11
5.27105e-11
5.34081e-11
5.40951e-11
5.47696e-11
5.54292e-11
5.60714e-11
5.66936e-11
5.72928e-11
5.78657e-11
5.84089e-11
5.89185e-11
5.93905e-11
5.98204e-11
6.02035e-11
6.0535e-11
6.08097e-11
6.10225e-11
6.11684e-11
6.1243e-11
)
;
    }
    Wall
    {
        type            calculated;
        value           nonuniform List<scalar> 
400
(
1.07265e-17
3.41645e-17
5.995e-17
8.79751e-17
1.18258e-16
1.50904e-16
1.86017e-16
2.23702e-16
2.64082e-16
3.07288e-16
3.53458e-16
4.0274e-16
4.55284e-16
5.11249e-16
5.70793e-16
6.34081e-16
7.0128e-16
7.72559e-16
8.48091e-16
9.28052e-16
1.01262e-15
1.10197e-15
1.1963e-15
1.29579e-15
1.40063e-15
1.51102e-15
1.62716e-15
1.74925e-15
1.87749e-15
2.01211e-15
2.15332e-15
2.30133e-15
2.45639e-15
2.61871e-15
2.78854e-15
2.96613e-15
3.15171e-15
3.34556e-15
3.54791e-15
3.75906e-15
3.97926e-15
4.2088e-15
4.44797e-15
4.69706e-15
4.95638e-15
5.22622e-15
5.50692e-15
5.7988e-15
6.10219e-15
6.41743e-15
6.74487e-15
7.08488e-15
7.43782e-15
7.80407e-15
8.18402e-15
8.57808e-15
8.98665e-15
9.41014e-15
9.84901e-15
1.03037e-14
1.07746e-14
1.12623e-14
1.17671e-14
1.22897e-14
1.28305e-14
1.339e-14
1.39688e-14
1.45674e-14
1.51864e-14
1.58263e-14
1.64878e-14
1.71715e-14
1.78779e-14
1.86078e-14
1.93618e-14
2.01406e-14
2.09449e-14
2.17754e-14
2.26328e-14
2.35179e-14
2.44316e-14
2.53745e-14
2.63476e-14
2.73516e-14
2.83874e-14
2.9456e-14
3.05583e-14
3.16951e-14
3.28676e-14
3.40766e-14
3.53232e-14
3.66084e-14
3.79334e-14
3.92993e-14
4.07071e-14
4.21581e-14
4.36535e-14
4.51945e-14
4.67825e-14
4.84186e-14
5.01042e-14
5.18408e-14
5.36298e-14
5.54725e-14
5.73706e-14
5.93255e-14
6.13388e-14
6.34121e-14
6.55472e-14
6.77457e-14
7.00093e-14
7.234e-14
7.47394e-14
7.72096e-14
7.97525e-14
8.23701e-14
8.50644e-14
8.78376e-14
9.06918e-14
9.36293e-14
9.66523e-14
9.97632e-14
1.02964e-13
1.06258e-13
1.09647e-13
1.13135e-13
1.16722e-13
1.20413e-13
1.2421e-13
1.28116e-13
1.32135e-13
1.36268e-13
1.40519e-13
1.44891e-13
1.49388e-13
1.54013e-13
1.58769e-13
1.6366e-13
1.6869e-13
1.73862e-13
1.7918e-13
1.84648e-13
1.9027e-13
1.9605e-13
2.01992e-13
2.08101e-13
2.14381e-13
2.20836e-13
2.27472e-13
2.34292e-13
2.41303e-13
2.48508e-13
2.55913e-13
2.63523e-13
2.71344e-13
2.79381e-13
2.8764e-13
2.96126e-13
3.04845e-13
3.13804e-13
3.23009e-13
3.32466e-13
3.42181e-13
3.52161e-13
3.62414e-13
3.72946e-13
3.83763e-13
3.94875e-13
4.06287e-13
4.18008e-13
4.30045e-13
4.42408e-13
4.55103e-13
4.68139e-13
4.81525e-13
4.95269e-13
5.09382e-13
5.23871e-13
5.38746e-13
5.54017e-13
5.69695e-13
5.85788e-13
6.02307e-13
6.19263e-13
6.36667e-13
6.54529e-13
6.72861e-13
6.91674e-13
7.1098e-13
7.30792e-13
7.51121e-13
7.7198e-13
7.93382e-13
8.1534e-13
8.37867e-13
8.60978e-13
8.84685e-13
9.09004e-13
9.33949e-13
9.59535e-13
9.85777e-13
1.01269e-12
1.04029e-12
1.0686e-12
1.09762e-12
1.12738e-12
1.1579e-12
1.18919e-12
1.22126e-12
1.25415e-12
1.28786e-12
1.32242e-12
1.35784e-12
1.39415e-12
1.43136e-12
1.4695e-12
1.50859e-12
1.54864e-12
1.58969e-12
1.63175e-12
1.67484e-12
1.71899e-12
1.76422e-12
1.81056e-12
1.85803e-12
1.90665e-12
1.95645e-12
2.00747e-12
2.05971e-12
2.11321e-12
2.168e-12
2.22411e-12
2.28156e-12
2.34038e-12
2.4006e-12
2.46226e-12
2.52537e-12
2.58998e-12
2.65612e-12
2.72381e-12
2.79309e-12
2.86399e-12
2.93655e-12
3.0108e-12
3.08677e-12
3.1645e-12
3.24404e-12
3.3254e-12
3.40864e-12
3.49378e-12
3.58087e-12
3.66995e-12
3.76105e-12
3.85422e-12
3.9495e-12
4.04693e-12
4.14655e-12
4.2484e-12
4.35253e-12
4.45899e-12
4.56781e-12
4.67904e-12
4.79274e-12
4.90894e-12
5.02769e-12
5.14904e-12
5.27305e-12
5.39976e-12
5.52922e-12
5.66148e-12
5.7966e-12
5.93462e-12
6.0756e-12
6.2196e-12
6.36666e-12
6.51685e-12
6.67022e-12
6.82682e-12
6.98672e-12
7.14998e-12
7.31664e-12
7.48677e-12
7.66044e-12
7.8377e-12
8.01861e-12
8.20324e-12
8.39165e-12
8.58391e-12
8.78007e-12
8.98021e-12
9.18439e-12
9.39267e-12
9.60513e-12
9.82183e-12
1.00428e-11
1.02682e-11
1.04981e-11
1.07324e-11
1.09714e-11
1.1215e-11
1.14634e-11
1.17165e-11
1.19746e-11
1.22376e-11
1.25057e-11
1.27788e-11
1.30572e-11
1.33408e-11
1.36297e-11
1.39241e-11
1.42239e-11
1.45293e-11
1.48404e-11
1.51572e-11
1.54798e-11
1.58083e-11
1.61428e-11
1.64833e-11
1.683e-11
1.71828e-11
1.7542e-11
1.79075e-11
1.82795e-11
1.86579e-11
1.9043e-11
1.94348e-11
1.98334e-11
2.02388e-11
2.06511e-11
2.10704e-11
2.14968e-11
2.19303e-11
2.23711e-11
2.28191e-11
2.32745e-11
2.37374e-11
2.42077e-11
2.46856e-11
2.51711e-11
2.56643e-11
2.61653e-11
2.6674e-11
2.71906e-11
2.7715e-11
2.82474e-11
2.87877e-11
2.9336e-11
2.98923e-11
3.04567e-11
3.1029e-11
3.16094e-11
3.21978e-11
3.27942e-11
3.33985e-11
3.40108e-11
3.4631e-11
3.52589e-11
3.58945e-11
3.65377e-11
3.71884e-11
3.78464e-11
3.85115e-11
3.91836e-11
3.98624e-11
4.05477e-11
4.12391e-11
4.19364e-11
4.26392e-11
4.3347e-11
4.40595e-11
4.4776e-11
4.5496e-11
4.6219e-11
4.69441e-11
4.76706e-11
4.83976e-11
4.91242e-11
4.98493e-11
5.05717e-11
5.12902e-11
5.20033e-11
5.27095e-11
5.34071e-11
5.40941e-11
5.47686e-11
5.54282e-11
5.60704e-11
5.66926e-11
5.72918e-11
5.78648e-11
5.8408e-11
5.89176e-11
5.93895e-11
5.98194e-11
6.02026e-11
6.0534e-11
6.08088e-11
6.10217e-11
6.11677e-11
6.12423e-11
)
;
    }
}


// ************************************************************************* //
