/*--------------------------------*- C++ -*----------------------------------*\
  =========                 |
  \\      /  F ield         | OpenFOAM: The Open Source CFD Toolbox
   \\    /   O peration     | Website:  https://openfoam.org
    \\  /    A nd           | Version:  dev
     \\/     M anipulation  |
\*---------------------------------------------------------------------------*/
FoamFile
{
    format      ascii;
    class       volScalarField;
    location    "0.7";
    object      N1;
}
// * * * * * * * * * * * * * * * * * * * * * * * * * * * * * * * * * * * * * //

dimensions      [0 0 0 0 0 0 0];

internalField   nonuniform List<scalar> 
8000
(
8.14425e-17
2.59463e-16
4.55375e-16
6.68364e-16
8.98574e-16
1.14681e-15
1.41386e-15
1.70054e-15
2.00778e-15
2.33658e-15
2.68802e-15
3.06321e-15
3.46333e-15
3.88956e-15
4.34314e-15
4.82532e-15
5.3374e-15
5.88067e-15
6.45646e-15
7.06611e-15
7.711e-15
8.39253e-15
9.1121e-15
9.87117e-15
1.06712e-14
1.15137e-14
1.24003e-14
1.33324e-14
1.43117e-14
1.53398e-14
1.64184e-14
1.75492e-14
1.87339e-14
1.99744e-14
2.12725e-14
2.263e-14
2.40489e-14
2.55312e-14
2.70788e-14
2.86938e-14
3.03783e-14
3.21346e-14
3.39647e-14
3.5871e-14
3.78558e-14
3.99215e-14
4.20706e-14
4.43055e-14
4.66288e-14
4.90432e-14
5.15513e-14
5.4156e-14
5.686e-14
5.96664e-14
6.2578e-14
6.5598e-14
6.87296e-14
7.19759e-14
7.53404e-14
7.88263e-14
8.24373e-14
8.61769e-14
9.00489e-14
9.40569e-14
9.8205e-14
1.02497e-13
1.06937e-13
1.1153e-13
1.16279e-13
1.2119e-13
1.26266e-13
1.31513e-13
1.36935e-13
1.42538e-13
1.48325e-13
1.54304e-13
1.60478e-13
1.66854e-13
1.73438e-13
1.80234e-13
1.8725e-13
1.94491e-13
2.01963e-13
2.09674e-13
2.1763e-13
2.25838e-13
2.34304e-13
2.43037e-13
2.52043e-13
2.61331e-13
2.70908e-13
2.80782e-13
2.90962e-13
3.01456e-13
3.12273e-13
3.23423e-13
3.34913e-13
3.46755e-13
3.58957e-13
3.7153e-13
3.84484e-13
3.9783e-13
4.11579e-13
4.25742e-13
4.4033e-13
4.55355e-13
4.70829e-13
4.86766e-13
5.03177e-13
5.20076e-13
5.37476e-13
5.55391e-13
5.73836e-13
5.92825e-13
6.12373e-13
6.32495e-13
6.53208e-13
6.74528e-13
6.9647e-13
7.19053e-13
7.42294e-13
7.66211e-13
7.90823e-13
8.16148e-13
8.42206e-13
8.69016e-13
8.96601e-13
9.2498e-13
9.54175e-13
9.84208e-13
1.0151e-12
1.04688e-12
1.07957e-12
1.11319e-12
1.14777e-12
1.18333e-12
1.2199e-12
1.25751e-12
1.29619e-12
1.33596e-12
1.37685e-12
1.4189e-12
1.46213e-12
1.50658e-12
1.55227e-12
1.59925e-12
1.64754e-12
1.69718e-12
1.74821e-12
1.80065e-12
1.85456e-12
1.90997e-12
1.96692e-12
2.02544e-12
2.08559e-12
2.14739e-12
2.2109e-12
2.27616e-12
2.34322e-12
2.41211e-12
2.4829e-12
2.55563e-12
2.63034e-12
2.7071e-12
2.78594e-12
2.86694e-12
2.95013e-12
3.03558e-12
3.12335e-12
3.21349e-12
3.30606e-12
3.40114e-12
3.49877e-12
3.59902e-12
3.70197e-12
3.80767e-12
3.91621e-12
4.02764e-12
4.14204e-12
4.25949e-12
4.38006e-12
4.50382e-12
4.63087e-12
4.76127e-12
4.89512e-12
5.03249e-12
5.17348e-12
5.31817e-12
5.46665e-12
5.61902e-12
5.77537e-12
5.93579e-12
6.10039e-12
6.26926e-12
6.44252e-12
6.62026e-12
6.80259e-12
6.98962e-12
7.18147e-12
7.37825e-12
7.58007e-12
7.78706e-12
7.99933e-12
8.21702e-12
8.44024e-12
8.66914e-12
8.90383e-12
9.14446e-12
9.39117e-12
9.64409e-12
9.90337e-12
1.01692e-11
1.04416e-11
1.07208e-11
1.1007e-11
1.13004e-11
1.1601e-11
1.1909e-11
1.22247e-11
1.25482e-11
1.28796e-11
1.32192e-11
1.3567e-11
1.39234e-11
1.42885e-11
1.46625e-11
1.50455e-11
1.54378e-11
1.58396e-11
1.62511e-11
1.66725e-11
1.7104e-11
1.75459e-11
1.79983e-11
1.84615e-11
1.89356e-11
1.94211e-11
1.9918e-11
2.04266e-11
2.09472e-11
2.14801e-11
2.20254e-11
2.25834e-11
2.31545e-11
2.37388e-11
2.43366e-11
2.49483e-11
2.55741e-11
2.62143e-11
2.68691e-11
2.75389e-11
2.8224e-11
2.89247e-11
2.96413e-11
3.03741e-11
3.11234e-11
3.18896e-11
3.26729e-11
3.34738e-11
3.42925e-11
3.51295e-11
3.5985e-11
3.68594e-11
3.77531e-11
3.86664e-11
3.95998e-11
4.05535e-11
4.15281e-11
4.25237e-11
4.3541e-11
4.45801e-11
4.56417e-11
4.6726e-11
4.78334e-11
4.89645e-11
5.01196e-11
5.12992e-11
5.25037e-11
5.37335e-11
5.49891e-11
5.62709e-11
5.75794e-11
5.89151e-11
6.02784e-11
6.16698e-11
6.30898e-11
6.45389e-11
6.60175e-11
6.75262e-11
6.90655e-11
7.06358e-11
7.22377e-11
7.38718e-11
7.55384e-11
7.72382e-11
7.89717e-11
8.07394e-11
8.25419e-11
8.43798e-11
8.62535e-11
8.81636e-11
9.01107e-11
9.20954e-11
9.41183e-11
9.61798e-11
9.82807e-11
1.00421e-10
1.02603e-10
1.04825e-10
1.07089e-10
1.09395e-10
1.11744e-10
1.14136e-10
1.16573e-10
1.19054e-10
1.21581e-10
1.24153e-10
1.26772e-10
1.29438e-10
1.32152e-10
1.34914e-10
1.37725e-10
1.40586e-10
1.43497e-10
1.46459e-10
1.49472e-10
1.52538e-10
1.55655e-10
1.58827e-10
1.62051e-10
1.65331e-10
1.68665e-10
1.72055e-10
1.75501e-10
1.79003e-10
1.82563e-10
1.8618e-10
1.89856e-10
1.9359e-10
1.97383e-10
2.01236e-10
2.05149e-10
2.09122e-10
2.13155e-10
2.1725e-10
2.21405e-10
2.25622e-10
2.29901e-10
2.34241e-10
2.38643e-10
2.43107e-10
2.47632e-10
2.52219e-10
2.56867e-10
2.61576e-10
2.66346e-10
2.71175e-10
2.76064e-10
2.81011e-10
2.86015e-10
2.91076e-10
2.96191e-10
3.0136e-10
3.06581e-10
3.11851e-10
3.17169e-10
3.22532e-10
3.27937e-10
3.33381e-10
3.3886e-10
3.44371e-10
3.49909e-10
3.55469e-10
3.61046e-10
3.66633e-10
3.72225e-10
3.77813e-10
3.8339e-10
3.88946e-10
3.94472e-10
3.99956e-10
4.05388e-10
4.10753e-10
4.16036e-10
4.21224e-10
4.26296e-10
4.31236e-10
4.36021e-10
4.40629e-10
4.45036e-10
4.49213e-10
4.53133e-10
4.56762e-10
4.60069e-10
4.63015e-10
4.65564e-10
4.67677e-10
4.69314e-10
4.70436e-10
4.7101e-10
7.97822e-17
2.55764e-16
4.50024e-16
6.62286e-16
8.92531e-16
1.1413e-15
1.40928e-15
1.69726e-15
2.00616e-15
2.33698e-15
2.6908e-15
3.06877e-15
3.47207e-15
3.90193e-15
4.35961e-15
4.8464e-15
5.3636e-15
5.91256e-15
6.49464e-15
7.11122e-15
7.76371e-15
8.45355e-15
9.18219e-15
9.95113e-15
1.07619e-14
1.1616e-14
1.25151e-14
1.34607e-14
1.44546e-14
1.54983e-14
1.65937e-14
1.77425e-14
1.89465e-14
2.02076e-14
2.15276e-14
2.29086e-14
2.43524e-14
2.58611e-14
2.74368e-14
2.90816e-14
3.07978e-14
3.25874e-14
3.4453e-14
3.63966e-14
3.84209e-14
4.05283e-14
4.27212e-14
4.50023e-14
4.73742e-14
4.98396e-14
5.24015e-14
5.50625e-14
5.78257e-14
6.06941e-14
6.36707e-14
6.67588e-14
6.99616e-14
7.32824e-14
7.67247e-14
8.02921e-14
8.39881e-14
8.78164e-14
9.17809e-14
9.58855e-14
1.00134e-13
1.04531e-13
1.09081e-13
1.13787e-13
1.18654e-13
1.23688e-13
1.28892e-13
1.34272e-13
1.39832e-13
1.45578e-13
1.51515e-13
1.57648e-13
1.63983e-13
1.70526e-13
1.77282e-13
1.84257e-13
1.91459e-13
1.98892e-13
2.06564e-13
2.14481e-13
2.2265e-13
2.31079e-13
2.39775e-13
2.48744e-13
2.57996e-13
2.67537e-13
2.77376e-13
2.87522e-13
2.97982e-13
3.08766e-13
3.19883e-13
3.31341e-13
3.43152e-13
3.55323e-13
3.67867e-13
3.80792e-13
3.94109e-13
4.07831e-13
4.21967e-13
4.36529e-13
4.51529e-13
4.6698e-13
4.82894e-13
4.99283e-13
5.16161e-13
5.33542e-13
5.51439e-13
5.69866e-13
5.88839e-13
6.08372e-13
6.28482e-13
6.49182e-13
6.70491e-13
6.92425e-13
7.15e-13
7.38235e-13
7.62148e-13
7.86756e-13
8.12081e-13
8.38139e-13
8.64953e-13
8.92543e-13
9.20929e-13
9.50133e-13
9.80178e-13
1.01109e-12
1.04288e-12
1.07559e-12
1.10923e-12
1.14383e-12
1.17942e-12
1.21602e-12
1.25367e-12
1.29238e-12
1.33219e-12
1.37312e-12
1.41522e-12
1.4585e-12
1.503e-12
1.54875e-12
1.59579e-12
1.64415e-12
1.69386e-12
1.74496e-12
1.79749e-12
1.85149e-12
1.90698e-12
1.96403e-12
2.02265e-12
2.0829e-12
2.14482e-12
2.20845e-12
2.27384e-12
2.34103e-12
2.41007e-12
2.481e-12
2.55389e-12
2.62876e-12
2.70569e-12
2.78472e-12
2.8659e-12
2.94929e-12
3.03495e-12
3.12294e-12
3.21331e-12
3.30612e-12
3.40145e-12
3.49934e-12
3.59987e-12
3.7031e-12
3.80911e-12
3.91795e-12
4.02971e-12
4.14446e-12
4.26226e-12
4.3832e-12
4.50736e-12
4.63481e-12
4.76563e-12
4.89992e-12
5.03775e-12
5.17922e-12
5.3244e-12
5.4734e-12
5.62631e-12
5.78322e-12
5.94423e-12
6.10943e-12
6.27894e-12
6.45286e-12
6.63128e-12
6.81432e-12
7.0021e-12
7.19472e-12
7.39229e-12
7.59495e-12
7.8028e-12
8.01597e-12
8.23459e-12
8.45878e-12
8.68868e-12
8.92442e-12
9.16614e-12
9.41396e-12
9.66805e-12
9.92854e-12
1.01956e-11
1.04693e-11
1.07499e-11
1.10375e-11
1.13323e-11
1.16344e-11
1.1944e-11
1.22613e-11
1.25865e-11
1.29196e-11
1.3261e-11
1.36107e-11
1.3969e-11
1.43361e-11
1.47121e-11
1.50973e-11
1.54919e-11
1.5896e-11
1.63099e-11
1.67337e-11
1.71678e-11
1.76122e-11
1.80674e-11
1.85334e-11
1.90105e-11
1.94989e-11
1.99989e-11
2.05108e-11
2.10347e-11
2.1571e-11
2.21199e-11
2.26816e-11
2.32564e-11
2.38447e-11
2.44466e-11
2.50624e-11
2.56925e-11
2.63372e-11
2.69966e-11
2.76712e-11
2.83612e-11
2.9067e-11
2.97888e-11
3.0527e-11
3.12819e-11
3.20538e-11
3.28431e-11
3.36501e-11
3.44752e-11
3.53187e-11
3.61809e-11
3.70623e-11
3.79631e-11
3.88838e-11
3.98247e-11
4.07863e-11
4.17689e-11
4.27729e-11
4.37987e-11
4.48467e-11
4.59173e-11
4.7011e-11
4.81281e-11
4.92691e-11
5.04345e-11
5.16246e-11
5.28399e-11
5.40808e-11
5.53479e-11
5.66416e-11
5.79623e-11
5.93105e-11
6.06867e-11
6.20913e-11
6.3525e-11
6.49881e-11
6.64812e-11
6.80047e-11
6.95592e-11
7.11452e-11
7.27633e-11
7.44139e-11
7.60976e-11
7.78149e-11
7.95664e-11
8.13527e-11
8.31742e-11
8.50315e-11
8.69253e-11
8.8856e-11
9.08243e-11
9.28308e-11
9.48759e-11
9.69604e-11
9.90848e-11
1.0125e-10
1.03456e-10
1.05703e-10
1.07993e-10
1.10326e-10
1.12703e-10
1.15124e-10
1.17589e-10
1.201e-10
1.22657e-10
1.25261e-10
1.27912e-10
1.30611e-10
1.33359e-10
1.36155e-10
1.39002e-10
1.41899e-10
1.44848e-10
1.47848e-10
1.509e-10
1.54006e-10
1.57165e-10
1.60378e-10
1.63647e-10
1.66971e-10
1.70351e-10
1.73787e-10
1.77281e-10
1.80833e-10
1.84443e-10
1.88112e-10
1.91841e-10
1.95629e-10
1.99478e-10
2.03388e-10
2.07359e-10
2.11392e-10
2.15488e-10
2.19646e-10
2.23866e-10
2.2815e-10
2.32497e-10
2.36908e-10
2.41382e-10
2.4592e-10
2.50522e-10
2.55188e-10
2.59917e-10
2.64709e-10
2.69564e-10
2.74481e-10
2.79461e-10
2.84501e-10
2.89602e-10
2.94762e-10
2.9998e-10
3.05256e-10
3.10586e-10
3.1597e-10
3.21406e-10
3.2689e-10
3.32422e-10
3.37997e-10
3.43613e-10
3.49265e-10
3.54951e-10
3.60664e-10
3.66401e-10
3.72156e-10
3.77923e-10
3.83694e-10
3.89462e-10
3.95219e-10
4.00956e-10
4.06663e-10
4.12328e-10
4.17939e-10
4.23483e-10
4.28944e-10
4.34307e-10
4.39554e-10
4.44664e-10
4.49617e-10
4.5439e-10
4.58956e-10
4.63288e-10
4.67356e-10
4.71127e-10
4.74566e-10
4.77635e-10
4.80296e-10
4.82507e-10
4.84225e-10
4.85408e-10
4.86017e-10
7.82884e-17
2.51165e-16
4.41822e-16
6.50821e-16
8.78468e-16
1.12521e-15
1.39165e-15
1.67853e-15
1.98671e-15
2.31717e-15
2.67099e-15
3.04931e-15
3.45331e-15
3.88424e-15
4.34337e-15
4.832e-15
5.35148e-15
5.90314e-15
6.48839e-15
7.10864e-15
7.76531e-15
8.45988e-15
9.19383e-15
9.9687e-15
1.0786e-14
1.16474e-14
1.25545e-14
1.35089e-14
1.45123e-14
1.55665e-14
1.66732e-14
1.78343e-14
1.90516e-14
2.0327e-14
2.16624e-14
2.30599e-14
2.45215e-14
2.60492e-14
2.76453e-14
2.93119e-14
3.10511e-14
3.28655e-14
3.47572e-14
3.67287e-14
3.87825e-14
4.09211e-14
4.31471e-14
4.54632e-14
4.78721e-14
5.03766e-14
5.29795e-14
5.56839e-14
5.84926e-14
6.1409e-14
6.4436e-14
6.7577e-14
7.08353e-14
7.42143e-14
7.77177e-14
8.13489e-14
8.51117e-14
8.90099e-14
9.30475e-14
9.72285e-14
1.01557e-13
1.06037e-13
1.10673e-13
1.1547e-13
1.20432e-13
1.25564e-13
1.3087e-13
1.36357e-13
1.42028e-13
1.47889e-13
1.53945e-13
1.60203e-13
1.66667e-13
1.73344e-13
1.8024e-13
1.8736e-13
1.94711e-13
2.023e-13
2.10134e-13
2.18218e-13
2.26561e-13
2.3517e-13
2.44051e-13
2.53214e-13
2.62665e-13
2.72412e-13
2.82465e-13
2.92832e-13
3.03521e-13
3.14541e-13
3.25902e-13
3.37614e-13
3.49685e-13
3.62127e-13
3.7495e-13
3.88163e-13
4.01778e-13
4.15807e-13
4.30261e-13
4.45151e-13
4.6049e-13
4.7629e-13
4.92564e-13
5.09325e-13
5.26587e-13
5.44364e-13
5.62669e-13
5.81518e-13
6.00925e-13
6.20907e-13
6.41478e-13
6.62655e-13
6.84455e-13
7.06894e-13
7.29991e-13
7.53763e-13
7.7823e-13
8.03409e-13
8.29321e-13
8.55986e-13
8.83424e-13
9.11656e-13
9.40704e-13
9.7059e-13
1.00134e-12
1.03297e-12
1.06551e-12
1.09898e-12
1.13341e-12
1.16883e-12
1.20525e-12
1.24271e-12
1.28124e-12
1.32087e-12
1.36161e-12
1.40352e-12
1.4466e-12
1.4909e-12
1.53646e-12
1.58329e-12
1.63144e-12
1.68095e-12
1.73183e-12
1.78415e-12
1.83793e-12
1.8932e-12
1.95002e-12
2.00842e-12
2.06844e-12
2.13012e-12
2.19351e-12
2.25866e-12
2.3256e-12
2.39439e-12
2.46508e-12
2.53771e-12
2.61233e-12
2.68899e-12
2.76776e-12
2.84868e-12
2.9318e-12
3.01719e-12
3.1049e-12
3.19499e-12
3.28752e-12
3.38256e-12
3.48017e-12
3.58041e-12
3.68336e-12
3.78907e-12
3.89762e-12
4.00908e-12
4.12352e-12
4.24102e-12
4.36166e-12
4.48551e-12
4.61265e-12
4.74317e-12
4.87715e-12
5.01467e-12
5.15582e-12
5.3007e-12
5.44939e-12
5.60198e-12
5.75858e-12
5.91928e-12
6.08418e-12
6.25338e-12
6.42698e-12
6.6051e-12
6.78784e-12
6.97531e-12
7.16763e-12
7.36491e-12
7.56727e-12
7.77484e-12
7.98773e-12
8.20607e-12
8.42999e-12
8.65962e-12
8.8951e-12
9.13656e-12
9.38415e-12
9.638e-12
9.89826e-12
1.01651e-11
1.04386e-11
1.0719e-11
1.10064e-11
1.1301e-11
1.1603e-11
1.19125e-11
1.22296e-11
1.25547e-11
1.28877e-11
1.3229e-11
1.35787e-11
1.3937e-11
1.4304e-11
1.46801e-11
1.50653e-11
1.54599e-11
1.58641e-11
1.62781e-11
1.67021e-11
1.71363e-11
1.7581e-11
1.80364e-11
1.85026e-11
1.89801e-11
1.94688e-11
1.99693e-11
2.04816e-11
2.1006e-11
2.15428e-11
2.20922e-11
2.26546e-11
2.32301e-11
2.38191e-11
2.44218e-11
2.50385e-11
2.56696e-11
2.63152e-11
2.69757e-11
2.76514e-11
2.83426e-11
2.90497e-11
2.97728e-11
3.05125e-11
3.12689e-11
3.20424e-11
3.28334e-11
3.36422e-11
3.44692e-11
3.53146e-11
3.6179e-11
3.70625e-11
3.79657e-11
3.88889e-11
3.98324e-11
4.07967e-11
4.17821e-11
4.2789e-11
4.38179e-11
4.48692e-11
4.59432e-11
4.70405e-11
4.81613e-11
4.93062e-11
5.04756e-11
5.167e-11
5.28897e-11
5.41353e-11
5.54071e-11
5.67058e-11
5.80317e-11
5.93853e-11
6.07672e-11
6.21777e-11
6.36175e-11
6.5087e-11
6.65866e-11
6.8117e-11
6.96787e-11
7.12721e-11
7.28978e-11
7.45564e-11
7.62484e-11
7.79743e-11
7.97347e-11
8.15301e-11
8.33612e-11
8.52284e-11
8.71324e-11
8.90738e-11
9.1053e-11
9.30709e-11
9.51278e-11
9.72244e-11
9.93614e-11
1.01539e-10
1.03759e-10
1.0602e-10
1.08325e-10
1.10673e-10
1.13065e-10
1.15501e-10
1.17983e-10
1.20511e-10
1.23085e-10
1.25707e-10
1.28377e-10
1.31095e-10
1.33862e-10
1.3668e-10
1.39548e-10
1.42466e-10
1.45437e-10
1.4846e-10
1.51537e-10
1.54667e-10
1.57852e-10
1.61091e-10
1.64387e-10
1.67738e-10
1.71147e-10
1.74613e-10
1.78137e-10
1.8172e-10
1.85363e-10
1.89065e-10
1.92828e-10
1.96652e-10
2.00538e-10
2.04486e-10
2.08496e-10
2.12569e-10
2.16706e-10
2.20907e-10
2.25172e-10
2.29501e-10
2.33896e-10
2.38355e-10
2.4288e-10
2.4747e-10
2.52125e-10
2.56847e-10
2.61633e-10
2.66485e-10
2.71402e-10
2.76384e-10
2.81429e-10
2.86539e-10
2.91711e-10
2.96946e-10
3.02242e-10
3.07598e-10
3.13012e-10
3.18484e-10
3.2401e-10
3.2959e-10
3.35221e-10
3.40901e-10
3.46625e-10
3.52392e-10
3.58198e-10
3.64037e-10
3.69907e-10
3.75801e-10
3.81715e-10
3.87641e-10
3.93573e-10
3.99503e-10
4.05424e-10
4.11324e-10
4.17195e-10
4.23025e-10
4.28802e-10
4.34511e-10
4.40137e-10
4.45665e-10
4.51076e-10
4.5635e-10
4.61465e-10
4.66397e-10
4.71121e-10
4.75608e-10
4.79827e-10
4.83744e-10
4.87323e-10
4.90525e-10
4.93309e-10
4.9563e-10
4.97443e-10
4.98699e-10
4.9935e-10
7.68029e-17
2.46347e-16
4.3304e-16
6.37852e-16
8.61478e-16
1.10452e-15
1.36763e-15
1.65155e-15
1.95715e-15
2.2854e-15
2.63735e-15
3.01414e-15
3.41694e-15
3.84699e-15
4.30557e-15
4.79399e-15
5.31359e-15
5.86573e-15
6.45182e-15
7.07328e-15
7.73157e-15
8.42817e-15
9.1646e-15
9.9424e-15
1.07632e-14
1.16285e-14
1.25401e-14
1.34996e-14
1.45087e-14
1.55693e-14
1.66831e-14
1.7852e-14
1.90778e-14
2.03626e-14
2.17083e-14
2.31169e-14
2.45906e-14
2.61314e-14
2.77416e-14
2.94234e-14
3.1179e-14
3.30108e-14
3.49213e-14
3.69129e-14
3.89882e-14
4.11496e-14
4.33999e-14
4.57418e-14
4.8178e-14
5.07115e-14
5.33452e-14
5.60821e-14
5.89252e-14
6.18778e-14
6.4943e-14
6.81242e-14
7.14249e-14
7.48485e-14
7.83986e-14
8.2079e-14
8.58934e-14
8.98457e-14
9.39399e-14
9.81801e-14
1.02571e-13
1.07116e-13
1.1182e-13
1.16687e-13
1.21723e-13
1.26932e-13
1.32319e-13
1.37889e-13
1.43648e-13
1.496e-13
1.55751e-13
1.62107e-13
1.68674e-13
1.75457e-13
1.82463e-13
1.89699e-13
1.97169e-13
2.04883e-13
2.12845e-13
2.21063e-13
2.29544e-13
2.38296e-13
2.47327e-13
2.56643e-13
2.66254e-13
2.76168e-13
2.86392e-13
2.96936e-13
3.07809e-13
3.19019e-13
3.30577e-13
3.42492e-13
3.54775e-13
3.67434e-13
3.80481e-13
3.93927e-13
4.07783e-13
4.2206e-13
4.3677e-13
4.51925e-13
4.67537e-13
4.8362e-13
5.00186e-13
5.17248e-13
5.34821e-13
5.52918e-13
5.71555e-13
5.90745e-13
6.10505e-13
6.30849e-13
6.51795e-13
6.73359e-13
6.95557e-13
7.18407e-13
7.41928e-13
7.66137e-13
7.91053e-13
8.16697e-13
8.43087e-13
8.70244e-13
8.9819e-13
9.26945e-13
9.56531e-13
9.86972e-13
1.01829e-12
1.05051e-12
1.08366e-12
1.11775e-12
1.15283e-12
1.1889e-12
1.22601e-12
1.26418e-12
1.30343e-12
1.34379e-12
1.38531e-12
1.428e-12
1.47189e-12
1.51703e-12
1.56344e-12
1.61116e-12
1.66022e-12
1.71066e-12
1.76251e-12
1.81581e-12
1.87061e-12
1.92693e-12
1.98483e-12
2.04433e-12
2.10549e-12
2.16835e-12
2.23295e-12
2.29933e-12
2.36755e-12
2.43766e-12
2.50969e-12
2.5837e-12
2.65975e-12
2.73788e-12
2.81815e-12
2.90061e-12
2.98533e-12
3.07235e-12
3.16174e-12
3.25356e-12
3.34787e-12
3.44473e-12
3.54421e-12
3.64638e-12
3.7513e-12
3.85905e-12
3.96969e-12
4.08329e-12
4.19994e-12
4.31971e-12
4.44267e-12
4.56891e-12
4.69851e-12
4.83155e-12
4.96811e-12
5.10829e-12
5.25218e-12
5.39986e-12
5.55142e-12
5.70697e-12
5.86661e-12
6.03042e-12
6.19852e-12
6.371e-12
6.54798e-12
6.72956e-12
6.91585e-12
7.10696e-12
7.30303e-12
7.50415e-12
7.71045e-12
7.92206e-12
8.1391e-12
8.3617e-12
8.58999e-12
8.8241e-12
9.06418e-12
9.31036e-12
9.56279e-12
9.8216e-12
1.0087e-11
1.0359e-11
1.06379e-11
1.09238e-11
1.12169e-11
1.15172e-11
1.18251e-11
1.21407e-11
1.24641e-11
1.27955e-11
1.31351e-11
1.34831e-11
1.38397e-11
1.4205e-11
1.45793e-11
1.49628e-11
1.53556e-11
1.5758e-11
1.61702e-11
1.65923e-11
1.70247e-11
1.74675e-11
1.7921e-11
1.83854e-11
1.88609e-11
1.93478e-11
1.98463e-11
2.03566e-11
2.08791e-11
2.14139e-11
2.19614e-11
2.25217e-11
2.30953e-11
2.36823e-11
2.4283e-11
2.48977e-11
2.55267e-11
2.61703e-11
2.68288e-11
2.75025e-11
2.81917e-11
2.88968e-11
2.96179e-11
3.03556e-11
3.111e-11
3.18816e-11
3.26706e-11
3.34775e-11
3.43025e-11
3.51461e-11
3.60085e-11
3.68902e-11
3.77916e-11
3.87129e-11
3.96546e-11
4.06172e-11
4.16009e-11
4.26062e-11
4.36334e-11
4.46831e-11
4.57556e-11
4.68513e-11
4.79708e-11
4.91143e-11
5.02824e-11
5.14755e-11
5.2694e-11
5.39385e-11
5.52093e-11
5.6507e-11
5.78321e-11
5.91849e-11
6.05661e-11
6.19761e-11
6.34153e-11
6.48844e-11
6.63839e-11
6.79141e-11
6.94758e-11
7.10693e-11
7.26953e-11
7.43543e-11
7.60468e-11
7.77734e-11
7.95347e-11
8.13311e-11
8.31634e-11
8.50321e-11
8.69377e-11
8.88808e-11
9.08621e-11
9.28821e-11
9.49414e-11
9.70407e-11
9.91806e-11
1.01362e-10
1.03585e-10
1.0585e-10
1.08158e-10
1.1051e-10
1.12907e-10
1.15348e-10
1.17835e-10
1.20369e-10
1.22949e-10
1.25577e-10
1.28253e-10
1.30978e-10
1.33753e-10
1.36578e-10
1.39454e-10
1.42382e-10
1.45362e-10
1.48395e-10
1.51481e-10
1.54622e-10
1.57817e-10
1.61069e-10
1.64376e-10
1.67741e-10
1.71163e-10
1.74643e-10
1.78182e-10
1.81781e-10
1.85439e-10
1.89159e-10
1.92939e-10
1.96782e-10
2.00687e-10
2.04655e-10
2.08686e-10
2.12781e-10
2.16941e-10
2.21166e-10
2.25456e-10
2.29812e-10
2.34234e-10
2.38722e-10
2.43277e-10
2.47899e-10
2.52587e-10
2.57343e-10
2.62166e-10
2.67056e-10
2.72012e-10
2.77036e-10
2.82125e-10
2.87281e-10
2.92502e-10
2.97787e-10
3.03137e-10
3.08549e-10
3.14022e-10
3.19556e-10
3.25149e-10
3.30799e-10
3.36503e-10
3.42261e-10
3.48068e-10
3.53922e-10
3.5982e-10
3.65758e-10
3.71732e-10
3.77738e-10
3.83769e-10
3.89822e-10
3.95888e-10
4.01962e-10
4.08035e-10
4.141e-10
4.20146e-10
4.26164e-10
4.32142e-10
4.38067e-10
4.43926e-10
4.49703e-10
4.55382e-10
4.60944e-10
4.66369e-10
4.71636e-10
4.76719e-10
4.81593e-10
4.86229e-10
4.90594e-10
4.94655e-10
4.98374e-10
5.0171e-10
5.0462e-10
5.07055e-10
5.08966e-10
5.10299e-10
5.10995e-10
7.54e-17
2.41775e-16
4.24719e-16
6.25302e-16
8.44479e-16
1.08307e-15
1.34188e-15
1.62175e-15
1.92359e-15
2.24839e-15
2.59721e-15
2.97118e-15
3.37147e-15
3.79932e-15
4.25599e-15
4.74278e-15
5.26104e-15
5.81213e-15
6.39745e-15
7.01844e-15
7.67655e-15
8.37329e-15
9.11019e-15
9.88882e-15
1.07108e-14
1.15777e-14
1.24913e-14
1.34532e-14
1.44652e-14
1.55292e-14
1.66469e-14
1.78202e-14
1.90511e-14
2.03416e-14
2.16936e-14
2.31092e-14
2.45907e-14
2.614e-14
2.77595e-14
2.94514e-14
3.12181e-14
3.30619e-14
3.49853e-14
3.69909e-14
3.90811e-14
4.12587e-14
4.35262e-14
4.58866e-14
4.83426e-14
5.08971e-14
5.35531e-14
5.63137e-14
5.91821e-14
6.21613e-14
6.52549e-14
6.8466e-14
7.17983e-14
7.52552e-14
7.88405e-14
8.25578e-14
8.64111e-14
9.04044e-14
9.45415e-14
9.88269e-14
1.03265e-13
1.07859e-13
1.12615e-13
1.17537e-13
1.2263e-13
1.27898e-13
1.33347e-13
1.38982e-13
1.44808e-13
1.5083e-13
1.57055e-13
1.63488e-13
1.70134e-13
1.77001e-13
1.84093e-13
1.91418e-13
1.98982e-13
2.06792e-13
2.14855e-13
2.23178e-13
2.31768e-13
2.40633e-13
2.49781e-13
2.59219e-13
2.68955e-13
2.78999e-13
2.89359e-13
3.00043e-13
3.11061e-13
3.22421e-13
3.34135e-13
3.46211e-13
3.58659e-13
3.71491e-13
3.84716e-13
3.98347e-13
4.12393e-13
4.26867e-13
4.41781e-13
4.57146e-13
4.72976e-13
4.89283e-13
5.06081e-13
5.23382e-13
5.41202e-13
5.59555e-13
5.78455e-13
5.97917e-13
6.17957e-13
6.38592e-13
6.59836e-13
6.81708e-13
7.04224e-13
7.27402e-13
7.51261e-13
7.75819e-13
8.01095e-13
8.27109e-13
8.53881e-13
8.81432e-13
9.09783e-13
9.38957e-13
9.68974e-13
9.99859e-13
1.03164e-12
1.06433e-12
1.09796e-12
1.13255e-12
1.16814e-12
1.20475e-12
1.2424e-12
1.28113e-12
1.32096e-12
1.36193e-12
1.40405e-12
1.44737e-12
1.49192e-12
1.53773e-12
1.58483e-12
1.63325e-12
1.68304e-12
1.73423e-12
1.78686e-12
1.84096e-12
1.89657e-12
1.95374e-12
2.0125e-12
2.07289e-12
2.13497e-12
2.19877e-12
2.26434e-12
2.33172e-12
2.40097e-12
2.47212e-12
2.54524e-12
2.62037e-12
2.69756e-12
2.77687e-12
2.85835e-12
2.94206e-12
3.02806e-12
3.1164e-12
3.20714e-12
3.30035e-12
3.39609e-12
3.49442e-12
3.59542e-12
3.69914e-12
3.80565e-12
3.91504e-12
4.02736e-12
4.1427e-12
4.26112e-12
4.38272e-12
4.50756e-12
4.63573e-12
4.76731e-12
4.90238e-12
5.04104e-12
5.18336e-12
5.32945e-12
5.4794e-12
5.63329e-12
5.79123e-12
5.95332e-12
6.11965e-12
6.29033e-12
6.46547e-12
6.64517e-12
6.82955e-12
7.01872e-12
7.21278e-12
7.41187e-12
7.6161e-12
7.8256e-12
8.04048e-12
8.26088e-12
8.48693e-12
8.71876e-12
8.95651e-12
9.20031e-12
9.45032e-12
9.70666e-12
9.96951e-12
1.0239e-11
1.05153e-11
1.07985e-11
1.10889e-11
1.13865e-11
1.16916e-11
1.20043e-11
1.23248e-11
1.26532e-11
1.29898e-11
1.33348e-11
1.36882e-11
1.40504e-11
1.44214e-11
1.48016e-11
1.51911e-11
1.55901e-11
1.59988e-11
1.64175e-11
1.68463e-11
1.72855e-11
1.77353e-11
1.8196e-11
1.86677e-11
1.91507e-11
1.96453e-11
2.01517e-11
2.06701e-11
2.12008e-11
2.17442e-11
2.23003e-11
2.28696e-11
2.34522e-11
2.40486e-11
2.46588e-11
2.52833e-11
2.59224e-11
2.65763e-11
2.72453e-11
2.79298e-11
2.863e-11
2.93463e-11
3.0079e-11
3.08285e-11
3.1595e-11
3.23789e-11
3.31807e-11
3.40005e-11
3.48388e-11
3.56959e-11
3.65722e-11
3.74682e-11
3.8384e-11
3.93202e-11
4.02772e-11
4.12553e-11
4.22549e-11
4.32764e-11
4.43204e-11
4.5387e-11
4.64769e-11
4.75905e-11
4.87281e-11
4.98902e-11
5.10773e-11
5.22898e-11
5.35282e-11
5.4793e-11
5.60846e-11
5.74035e-11
5.87502e-11
6.01251e-11
6.15289e-11
6.2962e-11
6.44249e-11
6.59181e-11
6.74421e-11
6.89975e-11
7.05849e-11
7.22046e-11
7.38574e-11
7.55438e-11
7.72642e-11
7.90193e-11
8.08097e-11
8.26359e-11
8.44985e-11
8.63981e-11
8.83353e-11
9.03107e-11
9.23249e-11
9.43784e-11
9.64721e-11
9.86063e-11
1.00782e-10
1.02999e-10
1.05259e-10
1.07562e-10
1.09909e-10
1.12301e-10
1.14737e-10
1.1722e-10
1.19749e-10
1.22325e-10
1.24948e-10
1.2762e-10
1.30342e-10
1.33113e-10
1.35934e-10
1.38807e-10
1.41732e-10
1.44709e-10
1.47739e-10
1.50823e-10
1.53962e-10
1.57156e-10
1.60406e-10
1.63713e-10
1.67077e-10
1.70499e-10
1.73979e-10
1.77519e-10
1.81119e-10
1.84779e-10
1.885e-10
1.92283e-10
1.96129e-10
2.00038e-10
2.0401e-10
2.08046e-10
2.12147e-10
2.16313e-10
2.20545e-10
2.24843e-10
2.29208e-10
2.3364e-10
2.38139e-10
2.42705e-10
2.4734e-10
2.52042e-10
2.56813e-10
2.61653e-10
2.66561e-10
2.71537e-10
2.76581e-10
2.81694e-10
2.86874e-10
2.92122e-10
2.97436e-10
3.02816e-10
3.08262e-10
3.13772e-10
3.19345e-10
3.2498e-10
3.30675e-10
3.36428e-10
3.42238e-10
3.48102e-10
3.54018e-10
3.59982e-10
3.65991e-10
3.72042e-10
3.78131e-10
3.84252e-10
3.90402e-10
3.96573e-10
4.0276e-10
4.08956e-10
4.15153e-10
4.21343e-10
4.27515e-10
4.33661e-10
4.39768e-10
4.45824e-10
4.51815e-10
4.57725e-10
4.63538e-10
4.69236e-10
4.74797e-10
4.80201e-10
4.85422e-10
4.90433e-10
4.95206e-10
4.99708e-10
5.03904e-10
5.07755e-10
5.11219e-10
5.14249e-10
5.16796e-10
5.18803e-10
5.20211e-10
5.20951e-10
7.41584e-17
2.37713e-16
4.1733e-16
6.14056e-16
8.28981e-16
1.06311e-15
1.31741e-15
1.59286e-15
1.89045e-15
2.21124e-15
2.55631e-15
2.92681e-15
3.3239e-15
3.74883e-15
4.20283e-15
4.6872e-15
5.20327e-15
5.75241e-15
6.33601e-15
6.9555e-15
7.61235e-15
8.30807e-15
9.04418e-15
9.82227e-15
1.0644e-14
1.15109e-14
1.24248e-14
1.33873e-14
1.44003e-14
1.54656e-14
1.65851e-14
1.77605e-14
1.8994e-14
2.02875e-14
2.1643e-14
2.30627e-14
2.45487e-14
2.61032e-14
2.77285e-14
2.94268e-14
3.12006e-14
3.30522e-14
3.49841e-14
3.6999e-14
3.90993e-14
4.12878e-14
4.35672e-14
4.59403e-14
4.84101e-14
5.09793e-14
5.36511e-14
5.64286e-14
5.93149e-14
6.23133e-14
6.54272e-14
6.866e-14
7.20152e-14
7.54964e-14
7.91074e-14
8.28519e-14
8.67338e-14
9.07572e-14
9.49262e-14
9.9245e-14
1.03718e-13
1.0835e-13
1.13144e-13
1.18107e-13
1.23242e-13
1.28555e-13
1.34051e-13
1.39734e-13
1.45611e-13
1.51687e-13
1.57968e-13
1.64458e-13
1.71166e-13
1.78095e-13
1.85253e-13
1.92647e-13
2.00282e-13
2.08167e-13
2.16307e-13
2.24709e-13
2.33383e-13
2.42334e-13
2.51572e-13
2.61103e-13
2.70936e-13
2.81081e-13
2.91544e-13
3.02336e-13
3.13466e-13
3.24943e-13
3.36776e-13
3.48977e-13
3.61554e-13
3.74519e-13
3.87882e-13
4.01655e-13
4.15849e-13
4.30476e-13
4.45547e-13
4.61076e-13
4.77075e-13
4.93556e-13
5.10534e-13
5.28022e-13
5.46034e-13
5.64585e-13
5.8369e-13
6.03364e-13
6.23623e-13
6.44483e-13
6.6596e-13
6.88072e-13
7.10836e-13
7.3427e-13
7.58393e-13
7.83223e-13
8.08779e-13
8.35083e-13
8.62153e-13
8.90012e-13
9.1868e-13
9.4818e-13
9.78535e-13
1.00977e-12
1.0419e-12
1.07496e-12
1.10897e-12
1.14396e-12
1.17995e-12
1.21697e-12
1.25506e-12
1.29422e-12
1.33451e-12
1.37594e-12
1.41855e-12
1.46236e-12
1.50742e-12
1.55375e-12
1.60139e-12
1.65038e-12
1.70074e-12
1.75252e-12
1.80575e-12
1.86047e-12
1.91673e-12
1.97455e-12
2.03399e-12
2.09509e-12
2.15789e-12
2.22243e-12
2.28876e-12
2.35692e-12
2.42697e-12
2.49896e-12
2.57293e-12
2.64893e-12
2.72703e-12
2.80726e-12
2.8897e-12
2.97439e-12
3.06139e-12
3.15077e-12
3.24258e-12
3.33689e-12
3.43375e-12
3.53324e-12
3.63543e-12
3.74037e-12
3.84814e-12
3.95882e-12
4.07247e-12
4.18917e-12
4.309e-12
4.43203e-12
4.55836e-12
4.68805e-12
4.82119e-12
4.95787e-12
5.09817e-12
5.2422e-12
5.39003e-12
5.54176e-12
5.69749e-12
5.85731e-12
6.02134e-12
6.18966e-12
6.36238e-12
6.53962e-12
6.72148e-12
6.90807e-12
7.0995e-12
7.2959e-12
7.49739e-12
7.70407e-12
7.91609e-12
8.13356e-12
8.35662e-12
8.5854e-12
8.82003e-12
9.06065e-12
9.30741e-12
9.56044e-12
9.8199e-12
1.00859e-11
1.03587e-11
1.06383e-11
1.0925e-11
1.12189e-11
1.15201e-11
1.18289e-11
1.21455e-11
1.24699e-11
1.28023e-11
1.3143e-11
1.34922e-11
1.385e-11
1.42166e-11
1.45922e-11
1.4977e-11
1.53713e-11
1.57752e-11
1.6189e-11
1.66128e-11
1.70469e-11
1.74915e-11
1.79469e-11
1.84132e-11
1.88907e-11
1.93797e-11
1.98804e-11
2.03931e-11
2.0918e-11
2.14553e-11
2.20054e-11
2.25685e-11
2.31448e-11
2.37347e-11
2.43385e-11
2.49564e-11
2.55887e-11
2.62357e-11
2.68978e-11
2.75752e-11
2.82682e-11
2.89772e-11
2.97025e-11
3.04445e-11
3.12033e-11
3.19795e-11
3.27734e-11
3.35852e-11
3.44153e-11
3.52642e-11
3.61322e-11
3.70196e-11
3.79269e-11
3.88544e-11
3.98025e-11
4.07716e-11
4.17621e-11
4.27744e-11
4.3809e-11
4.48662e-11
4.59465e-11
4.70503e-11
4.81781e-11
4.93302e-11
5.05072e-11
5.17095e-11
5.29376e-11
5.41919e-11
5.54729e-11
5.67811e-11
5.8117e-11
5.94811e-11
6.08738e-11
6.22957e-11
6.37473e-11
6.52291e-11
6.67417e-11
6.82855e-11
6.98611e-11
7.1469e-11
7.31098e-11
7.47841e-11
7.64924e-11
7.82353e-11
8.00133e-11
8.18271e-11
8.36772e-11
8.55641e-11
8.74886e-11
8.94512e-11
9.14526e-11
9.34932e-11
9.55738e-11
9.7695e-11
9.98574e-11
1.02062e-10
1.04308e-10
1.06598e-10
1.08932e-10
1.1131e-10
1.13733e-10
1.16202e-10
1.18717e-10
1.2128e-10
1.2389e-10
1.26549e-10
1.29257e-10
1.32014e-10
1.34823e-10
1.37682e-10
1.40593e-10
1.43557e-10
1.46574e-10
1.49645e-10
1.52771e-10
1.55952e-10
1.59189e-10
1.62483e-10
1.65835e-10
1.69244e-10
1.72712e-10
1.7624e-10
1.79828e-10
1.83477e-10
1.87187e-10
1.90959e-10
1.94794e-10
1.98692e-10
2.02655e-10
2.06681e-10
2.10773e-10
2.14931e-10
2.19155e-10
2.23445e-10
2.27803e-10
2.32228e-10
2.36721e-10
2.41283e-10
2.45913e-10
2.50612e-10
2.55381e-10
2.60219e-10
2.65127e-10
2.70104e-10
2.7515e-10
2.80267e-10
2.85452e-10
2.90706e-10
2.96029e-10
3.0142e-10
3.06878e-10
3.12402e-10
3.17992e-10
3.23647e-10
3.29364e-10
3.35144e-10
3.40982e-10
3.46879e-10
3.52831e-10
3.58836e-10
3.64891e-10
3.70992e-10
3.77137e-10
3.8332e-10
3.89538e-10
3.95785e-10
4.02055e-10
4.08343e-10
4.14641e-10
4.20942e-10
4.27236e-10
4.33516e-10
4.39769e-10
4.45986e-10
4.52153e-10
4.58256e-10
4.6428e-10
4.70208e-10
4.76022e-10
4.81702e-10
4.87225e-10
4.92566e-10
4.97698e-10
5.02593e-10
5.07216e-10
5.11532e-10
5.15502e-10
5.19082e-10
5.22222e-10
5.2487e-10
5.26966e-10
5.28443e-10
5.29224e-10
7.31181e-17
2.34309e-16
4.11143e-16
6.04611e-16
8.15848e-16
1.04598e-15
1.29613e-15
1.5674e-15
1.86089e-15
2.17772e-15
2.51903e-15
2.88598e-15
3.27977e-15
3.7016e-15
4.15273e-15
4.63444e-15
5.14804e-15
5.6949e-15
6.2764e-15
6.89396e-15
7.54905e-15
8.24318e-15
8.97788e-15
9.75474e-15
1.05754e-14
1.14415e-14
1.23547e-14
1.33169e-14
1.43297e-14
1.53951e-14
1.65149e-14
1.7691e-14
1.89255e-14
2.02202e-14
2.15774e-14
2.29992e-14
2.44876e-14
2.60449e-14
2.76735e-14
2.93756e-14
3.11536e-14
3.301e-14
3.49473e-14
3.6968e-14
3.90748e-14
4.12705e-14
4.35577e-14
4.59393e-14
4.84181e-14
5.09973e-14
5.36799e-14
5.64689e-14
5.93675e-14
6.23792e-14
6.55073e-14
6.87552e-14
7.21264e-14
7.56248e-14
7.92539e-14
8.30177e-14
8.692e-14
9.0965e-14
9.51568e-14
9.94996e-14
1.03998e-13
1.08656e-13
1.13479e-13