/*--------------------------------*- C++ -*----------------------------------*\
  =========                 |
  \\      /  F ield         | OpenFOAM: The Open Source CFD Toolbox
   \\    /   O peration     | Website:  https://openfoam.org
    \\  /    A nd           | Version:  dev
     \\/     M anipulation  |
\*---------------------------------------------------------------------------*/
FoamFile
{
    format      ascii;
    class       volScalarField;
    location    "0.3";
    object      beta;
}
// * * * * * * * * * * * * * * * * * * * * * * * * * * * * * * * * * * * * * //

dimensions      [0 0 0 0 0 0 0];

internalField   uniform 0;

boundaryField
{
    frontAndBack
    {
        type            empty;
    }
    inlet
    {
        type            calculated;
        value           uniform 0;
    }
    outlet
    {
        type            calculated;
        value           uniform 0;
    }
    substrate
    {
        type            calculated;
        value           nonuniform List<scalar> 
400
(
0.00276608
0.00290564
0.00300803
0.00310162
0.00319055
0.0032752
0.00335654
0.00343548
0.00351263
0.00358846
0.00366329
0.00373739
0.00381097
0.00388417
0.00395711
0.00402987
0.00410252
0.0041751
0.00424764
0.00432015
0.00439263
0.0044651
0.00453753
0.00460991
0.00468223
0.00475448
0.00482662
0.00489863
0.0049705
0.00504219
0.00511368
0.00518495
0.00525597
0.00532672
0.00539717
0.00546729
0.00553707
0.00560649
0.00567551
0.00574411
0.00581228
0.00588
0.00594724
0.00601399
0.00608022
0.00614592
0.00621107
0.00627567
0.00633968
0.00640309
0.0064659
0.00652809
0.00658965
0.00665056
0.00671082
0.00677041
0.00682933
0.00688757
0.00694512
0.00700197
0.00705812
0.00711356
0.00716828
0.00722229
0.00727558
0.00732814
0.00737998
0.00743109
0.00748146
0.00753111
0.00758003
0.00762822
0.00767567
0.00772241
0.00776841
0.00781369
0.00785825
0.0079021
0.00794523
0.00798764
0.00802936
0.00807037
0.00811068
0.0081503
0.00818924
0.0082275
0.00826508
0.00830199
0.00833824
0.00837384
0.00840878
0.00844309
0.00847676
0.0085098
0.00854222
0.00857403
0.00860524
0.00863584
0.00866586
0.00869529
0.00872416
0.00875245
0.00878019
0.00880738
0.00883402
0.00886013
0.00888572
0.00891079
0.00893534
0.0089594
0.00898296
0.00900604
0.00902864
0.00905077
0.00907244
0.00909365
0.00911442
0.00913475
0.00915465
0.00917413
0.00919319
0.00921185
0.0092301
0.00924796
0.00926543
0.00928253
0.00929926
0.00931562
0.00933162
0.00934727
0.00936258
0.00937755
0.0093922
0.00940651
0.00942051
0.0094342
0.00944759
0.00946067
0.00947346
0.00948597
0.00949819
0.00951014
0.00952182
0.00953324
0.0095444
0.0095553
0.00956596
0.00957637
0.00958655
0.00959649
0.00960621
0.00961571
0.00962498
0.00963405
0.0096429
0.00965156
0.00966001
0.00966826
0.00967633
0.00968421
0.0096919
0.00969942
0.00970676
0.00971394
0.00972094
0.00972778
0.00973446
0.00974099
0.00974736
0.00975358
0.00975966
0.0097656
0.00977139
0.00977705
0.00978257
0.00978797
0.00979323
0.00979838
0.0098034
0.0098083
0.00981309
0.00981776
0.00982232
0.00982677
0.00983112
0.00983536
0.0098395
0.00984355
0.00984749
0.00985134
0.0098551
0.00985877
0.00986235
0.00986585
0.00986926
0.00987259
0.00987584
0.00987901
0.0098821
0.00988512
0.00988807
0.00989094
0.00989375
0.00989648
0.00989915
0.00990176
0.0099043
0.00990678
0.0099092
0.00991156
0.00991386
0.00991611
0.0099183
0.00992044
0.00992252
0.00992455
0.00992654
0.00992847
0.00993036
0.0099322
0.00993399
0.00993574
0.00993745
0.00993911
0.00994073
0.00994231
0.00994385
0.00994536
0.00994682
0.00994825
0.00994965
0.009951
0.00995233
0.00995362
0.00995488
0.0099561
0.0099573
0.00995846
0.0099596
0.0099607
0.00996178
0.00996283
0.00996385
0.00996485
0.00996582
0.00996677
0.00996769
0.00996859
0.00996946
0.00997032
0.00997115
0.00997195
0.00997274
0.00997351
0.00997426
0.00997498
0.00997569
0.00997638
0.00997705
0.00997771
0.00997834
0.00997896
0.00997956
0.00998015
0.00998072
0.00998128
0.00998182
0.00998234
0.00998286
0.00998336
0.00998384
0.00998431
0.00998477
0.00998522
0.00998565
0.00998607
0.00998649
0.00998689
0.00998727
0.00998765
0.00998802
0.00998838
0.00998872
0.00998906
0.00998939
0.00998971
0.00999002
0.00999032
0.00999062
0.0099909
0.00999118
0.00999145
0.00999171
0.00999196
0.00999221
0.00999245
0.00999268
0.00999291
0.00999313
0.00999334
0.00999355
0.00999375
0.00999394
0.00999413
0.00999432
0.00999449
0.00999467
0.00999484
0.009995
0.00999516
0.00999531
0.00999546
0.00999561
0.00999575
0.00999588
0.00999602
0.00999614
0.00999627
0.00999639
0.00999651
0.00999662
0.00999673
0.00999684
0.00999694
0.00999704
0.00999714
0.00999723
0.00999732
0.00999741
0.0099975
0.00999758
0.00999766
0.00999774
0.00999781
0.00999789
0.00999796
0.00999803
0.00999809
0.00999816
0.00999822
0.00999828
0.00999834
0.0099984
0.00999845
0.0099985
0.00999855
0.0099986
0.00999865
0.0099987
0.00999874
0.00999879
0.00999883
0.00999887
0.00999891
0.00999895
0.00999898
0.00999902
0.00999905
0.00999909
0.00999912
0.00999915
0.00999918
0.00999921
0.00999924
0.00999927
0.00999929
0.00999932
0.00999934
0.00999937
0.00999939
0.00999941
0.00999943
0.00999945
0.00999947
0.00999949
0.00999951
0.00999953
0.00999954
0.00999956
0.00999958
0.00999959
0.00999961
0.00999962
0.00999963
0.00999964
0.00999966
0.00999967
0.00999968
0.00999969
0.0099997
0.00999971
0.00999972
0.00999972
0.00999973
0.00999974
0.00999974
0.00999974
0.00999975
0.00999975
0.00999975
)
;
    }
    Wall
    {
        type            calculated;
        value           nonuniform List<scalar> 
400
(
0.00276608
0.00290564
0.00300802
0.00310161
0.00319055
0.0032752
0.00335655
0.00343549
0.00351265
0.00358848
0.00366332
0.00373742
0.003811
0.00388419
0.00395713
0.00402989
0.00410254
0.00417512
0.00424765
0.00432016
0.00439265
0.00446511
0.00453754
0.00460992
0.00468224
0.00475448
0.00482662
0.00489863
0.0049705
0.00504219
0.00511368
0.00518495
0.00525596
0.00532671
0.00539716
0.00546728
0.00553706
0.00560648
0.00567549
0.0057441
0.00581227
0.00587999
0.00594723
0.00601397
0.0060802
0.00614591
0.00621106
0.00627565
0.00633966
0.00640308
0.00646589
0.00652808
0.00658963
0.00665054
0.0067108
0.0067704
0.00682932
0.00688755
0.0069451
0.00700195
0.0070581
0.00711354
0.00716826
0.00722227
0.00727556
0.00732812
0.00737996
0.00743106
0.00748144
0.00753109
0.00758001
0.0076282
0.00767565
0.00772238
0.00776839
0.00781367
0.00785823
0.00790208
0.00794521
0.00798762
0.00802934
0.00807035
0.00811066
0.00815029
0.00818922
0.00822748
0.00826506
0.00830197
0.00833822
0.00837382
0.00840877
0.00844307
0.00847674
0.00850978
0.00854221
0.00857402
0.00860522
0.00863583
0.00866585
0.00869528
0.00872414
0.00875244
0.00878018
0.00880736
0.00883401
0.00886012
0.00888571
0.00891077
0.00893533
0.00895939
0.00898295
0.00900603
0.00902863
0.00905076
0.00907243
0.00909364
0.00911441
0.00913474
0.00915464
0.00917412
0.00919318
0.00921184
0.00923009
0.00924795
0.00926543
0.00928252
0.00929925
0.00931561
0.00933161
0.00934726
0.00936257
0.00937755
0.00939219
0.00940651
0.00942051
0.00943419
0.00944758
0.00946066
0.00947346
0.00948596
0.00949819
0.00951014
0.00952182
0.00953323
0.00954439
0.0095553
0.00956595
0.00957637
0.00958654
0.00959649
0.00960621
0.0096157
0.00962498
0.00963404
0.0096429
0.00965155
0.00966
0.00966826
0.00967633
0.0096842
0.0096919
0.00969942
0.00970676
0.00971393
0.00972094
0.00972778
0.00973446
0.00974099
0.00974736
0.00975358
0.00975966
0.00976559
0.00977139
0.00977705
0.00978257
0.00978796
0.00979323
0.00979837
0.0098034
0.0098083
0.00981308
0.00981776
0.00982232
0.00982677
0.00983112
0.00983536
0.0098395
0.00984354
0.00984749
0.00985134
0.0098551
0.00985877
0.00986235
0.00986585
0.00986926
0.00987259
0.00987584
0.00987901
0.0098821
0.00988512
0.00988806
0.00989094
0.00989374
0.00989648
0.00989915
0.00990176
0.0099043
0.00990678
0.0099092
0.00991156
0.00991386
0.00991611
0.0099183
0.00992043
0.00992252
0.00992455
0.00992653
0.00992847
0.00993035
0.00993219
0.00993399
0.00993574
0.00993744
0.00993911
0.00994073
0.00994231
0.00994385
0.00994536
0.00994682
0.00994825
0.00994965
0.009951
0.00995233
0.00995362
0.00995488
0.0099561
0.0099573
0.00995846
0.0099596
0.0099607
0.00996178
0.00996283
0.00996385
0.00996485
0.00996582
0.00996677
0.00996769
0.00996859
0.00996946
0.00997032
0.00997115
0.00997195
0.00997274
0.00997351
0.00997426
0.00997498
0.00997569
0.00997638
0.00997705
0.0099777
0.00997834
0.00997896
0.00997956
0.00998015
0.00998072
0.00998128
0.00998182
0.00998234
0.00998286
0.00998336
0.00998384
0.00998431
0.00998477
0.00998522
0.00998565
0.00998607
0.00998649
0.00998689
0.00998727
0.00998765
0.00998802
0.00998838
0.00998872
0.00998906
0.00998939
0.00998971
0.00999002
0.00999032
0.00999061
0.0099909
0.00999118
0.00999145
0.00999171
0.00999196
0.00999221
0.00999245
0.00999268
0.00999291
0.00999313
0.00999334
0.00999355
0.00999375
0.00999394
0.00999413
0.00999432
0.00999449
0.00999467
0.00999484
0.009995
0.00999516
0.00999531
0.00999546
0.00999561
0.00999575
0.00999588
0.00999602
0.00999614
0.00999627
0.00999639
0.00999651
0.00999662
0.00999673
0.00999684
0.00999694
0.00999704
0.00999714
0.00999723
0.00999732
0.00999741
0.0099975
0.00999758
0.00999766
0.00999774
0.00999781
0.00999789
0.00999796
0.00999803
0.00999809
0.00999816
0.00999822
0.00999828
0.00999834
0.0099984
0.00999845
0.0099985
0.00999855
0.0099986
0.00999865
0.0099987
0.00999874
0.00999879
0.00999883
0.00999887
0.00999891
0.00999895
0.00999898
0.00999902
0.00999905
0.00999909
0.00999912
0.00999915
0.00999918
0.00999921
0.00999924
0.00999927
0.00999929
0.00999932
0.00999934
0.00999937
0.00999939
0.00999941
0.00999943
0.00999945
0.00999947
0.00999949
0.00999951
0.00999953
0.00999954
0.00999956
0.00999958
0.00999959
0.00999961
0.00999962
0.00999963
0.00999964
0.00999966
0.00999967
0.00999968
0.00999969
0.0099997
0.00999971
0.00999972
0.00999972
0.00999973
0.00999974
0.00999974
0.00999974
0.00999975
0.00999975
0.00999975
)
;
    }
}


// ************************************************************************* //
