/*--------------------------------*- C++ -*----------------------------------*\
  =========                 |
  \\      /  F ield         | OpenFOAM: The Open Source CFD Toolbox
   \\    /   O peration     | Website:  https://openfoam.org
    \\  /    A nd           | Version:  dev
     \\/     M anipulation  |
\*---------------------------------------------------------------------------*/
FoamFile
{
    format      ascii;
    class       volScalarField;
    location    "0.3";
    object      cov;
}
// * * * * * * * * * * * * * * * * * * * * * * * * * * * * * * * * * * * * * //

dimensions      [0 0 0 0 0 0 0];

internalField   uniform 0;

boundaryField
{
    frontAndBack
    {
        type            empty;
    }
    inlet
    {
        type            calculated;
        value           uniform 0;
    }
    outlet
    {
        type            calculated;
        value           uniform 0;
    }
    substrate
    {
        type            calculated;
        value           nonuniform List<scalar> 
400
(
0.723392
0.709436
0.699197
0.689838
0.680945
0.67248
0.664346
0.656452
0.648737
0.641154
0.633671
0.626261
0.618903
0.611583
0.604289
0.597013
0.589748
0.58249
0.575236
0.567985
0.560737
0.55349
0.546247
0.539009
0.531777
0.524552
0.517338
0.510137
0.50295
0.495781
0.488632
0.481505
0.474403
0.467328
0.460283
0.453271
0.446293
0.439351
0.432449
0.425589
0.418772
0.412
0.405276
0.398601
0.391978
0.385408
0.378893
0.372433
0.366032
0.359691
0.35341
0.347191
0.341035
0.334944
0.328918
0.322959
0.317067
0.311243
0.305488
0.299803
0.294188
0.288644
0.283172
0.277771
0.272442
0.267186
0.262002
0.256891
0.251854
0.246889
0.241997
0.237178
0.232433
0.227759
0.223159
0.218631
0.214175
0.20979
0.205477
0.201236
0.197064
0.192963
0.188932
0.18497
0.181076
0.17725
0.173492
0.169801
0.166176
0.162616
0.159122
0.155691
0.152324
0.14902
0.145778
0.142597
0.139476
0.136416
0.133414
0.130471
0.127584
0.124755
0.121981
0.119262
0.116598
0.113987
0.111428
0.108921
0.106466
0.10406
0.101704
0.099396
0.097136
0.094923
0.0927561
0.0906346
0.0885578
0.0865247
0.0845347
0.082587
0.0806808
0.0788154
0.0769901
0.075204
0.0734565
0.0717469
0.0700744
0.0684383
0.066838
0.0652727
0.0637418
0.0622446
0.0607805
0.0593487
0.0579487
0.0565798
0.0552414
0.0539329
0.0526537
0.0514031
0.0501807
0.0489857
0.0478177
0.0466761
0.0455604
0.0444699
0.0434042
0.0423627
0.041345
0.0403505
0.0393788
0.0384293
0.0375016
0.0365952
0.0357096
0.0348445
0.0339993
0.0331736
0.032367
0.0315792
0.0308095
0.0300578
0.0293235
0.0286063
0.0279059
0.0272217
0.0265536
0.0259011
0.0252639
0.0246416
0.0240339
0.0234404
0.022861
0.0222952
0.0217427
0.0212032
0.0206765
0.0201623
0.0196602
0.01917
0.0186914
0.0182242
0.0177681
0.0173229
0.0168882
0.0164639
0.0160497
0.0156455
0.0152508
0.0148657
0.0144897
0.0141228
0.0137647
0.0134152
0.013074
0.0127411
0.0124163
0.0120992
0.0117898
0.0114879
0.0111934
0.0109059
0.0106254
0.0103517
0.0100847
0.00982418
0.00957
0.00932202
0.0090801
0.00884409
0.00861385
0.00838926
0.00817018
0.00795647
0.00774803
0.00754471
0.00734641
0.007153
0.00696438
0.00678042
0.00660102
0.00642607
0.00625547
0.00608911
0.0059269
0.00576874
0.00561452
0.00546417
0.00531758
0.00517467
0.00503536
0.00489954
0.00476716
0.00463811
0.00451233
0.00438973
0.00427024
0.00415379
0.0040403
0.0039297
0.00382193
0.00371691
0.00361459
0.00351489
0.00341775
0.00332311
0.00323091
0.0031411
0.00305361
0.00296838
0.00288538
0.00280453
0.00272579
0.00264911
0.00257443
0.00250171
0.00243091
0.00236196
0.00229484
0.00222949
0.00216587
0.00210393
0.00204365
0.00198497
0.00192785
0.00187227
0.00181817
0.00176552
0.0017143
0.00166445
0.00161595
0.00156877
0.00152286
0.0014782
0.00143476
0.00139251
0.00135141
0.00131144
0.00127257
0.00123477
0.00119802
0.00116228
0.00112753
0.00109375
0.00106091
0.00102899
0.000997959
0.000967799
0.000938487
0.000910001
0.00088232
0.000855422
0.000829287
0.000803896
0.000779228
0.000755264
0.000731987
0.000709378
0.000687419
0.000666093
0.000645384
0.000625275
0.000605749
0.000586792
0.000568387
0.000550521
0.000533179
0.000516345
0.000500008
0.000484153
0.000468767
0.000453837
0.000439351
0.000425297
0.000411662
0.000398436
0.000385606
0.000373163
0.000361094
0.00034939
0.000338041
0.000327037
0.000316367
0.000306023
0.000295996
0.000286275
0.000276854
0.000267722
0.000258873
0.000250297
0.000241988
0.000233936
0.000226136
0.000218579
0.00021126
0.000204169
0.000197302
0.000190652
0.000184212
0.000177975
0.000171937
0.000166091
0.000160432
0.000154954
0.000149651
0.000144519
0.000139553
0.000134746
0.000130096
0.000125596
0.000121243
0.000117031
0.000112958
0.000109018
0.000105207
0.000101522
9.7959e-05
9.45139e-05
9.11832e-05
8.79635e-05
8.48514e-05
8.18437e-05
7.89371e-05
7.61287e-05
7.34154e-05
7.07945e-05
6.82631e-05
6.58185e-05
6.34584e-05
6.11801e-05
5.89814e-05
5.686e-05
5.48138e-05
5.28408e-05
5.09391e-05
4.91069e-05
4.73426e-05
4.56446e-05
4.40117e-05
4.24427e-05
4.09364e-05
3.94922e-05
3.81092e-05
3.67873e-05
3.5526e-05
3.43257e-05
3.31867e-05
3.21097e-05
3.10958e-05
3.01466e-05
2.92641e-05
2.84505e-05
2.7709e-05
2.70431e-05
2.64568e-05
2.59547e-05
2.55422e-05
2.52247e-05
2.50079e-05
2.48974e-05
)
;
    }
    Wall
    {
        type            calculated;
        value           nonuniform List<scalar> 
400
(
0.723392
0.709436
0.699198
0.689839
0.680945
0.67248
0.664345
0.656451
0.648735
0.641152
0.633668
0.626258
0.6189
0.611581
0.604287
0.597011
0.589746
0.582488
0.575235
0.567984
0.560735
0.553489
0.546246
0.539008
0.531776
0.524552
0.517338
0.510137
0.50295
0.495781
0.488632
0.481505
0.474404
0.467329
0.460284
0.453272
0.446294
0.439352
0.432451
0.42559
0.418773
0.412001
0.405277
0.398603
0.39198
0.385409
0.378894
0.372435
0.366034
0.359692
0.353411
0.347192
0.341037
0.334946
0.32892
0.32296
0.317068
0.311245
0.30549
0.299805
0.29419
0.288646
0.283174
0.277773
0.272444
0.267188
0.262004
0.256894
0.251856
0.246891
0.241999
0.23718
0.232435
0.227762
0.223161
0.218633
0.214177
0.209792
0.205479
0.201238
0.197066
0.192965
0.188934
0.184971
0.181078
0.177252
0.173494
0.169803
0.166178
0.162618
0.159123
0.155693
0.152326
0.149022
0.145779
0.142598
0.139478
0.136417
0.133415
0.130472
0.127586
0.124756
0.121982
0.119264
0.116599
0.113988
0.111429
0.108923
0.106467
0.104061
0.101705
0.0993971
0.0971371
0.094924
0.0927572
0.0906357
0.0885588
0.0865257
0.0845357
0.082588
0.0806818
0.0788163
0.076991
0.0752049
0.0734574
0.0717477
0.0700752
0.0684391
0.0668388
0.0652735
0.0637426
0.0622454
0.0607812
0.0593495
0.0579494
0.0565805
0.0552421
0.0539336
0.0526544
0.0514038
0.0501813
0.0489864
0.0478183
0.0466767
0.0455609
0.0444705
0.0434048
0.0423633
0.0413456
0.0403511
0.0393793
0.0384298
0.0375021
0.0365957
0.0357101
0.034845
0.0339997
0.0331741
0.0323675
0.0315796
0.0308099
0.0300582
0.0293239
0.0286067
0.0279062
0.0272221
0.026554
0.0259014
0.0252642
0.0246419
0.0240342
0.0234408
0.0228613
0.0222955
0.021743
0.0212035
0.0206768
0.0201626
0.0196605
0.0191703
0.0186917
0.0182245
0.0177684
0.0173231
0.0168885
0.0164642
0.01605
0.0156457
0.0152511
0.0148659
0.01449
0.014123
0.0137649
0.0134154
0.0130742
0.0127413
0.0124165
0.0120994
0.01179
0.0114881
0.0111935
0.0109061
0.0106256
0.0103519
0.0100849
0.00982434
0.00957016
0.00932218
0.00908025
0.00884424
0.008614
0.0083894
0.00817032
0.00795661
0.00774816
0.00754485
0.00734654
0.00715313
0.0069645
0.00678054
0.00660114
0.00642619
0.00625558
0.00608923
0.00592701
0.00576884
0.00561463
0.00546427
0.00531768
0.00517477
0.00503545
0.00489964
0.00476725
0.0046382
0.00451242
0.00438982
0.00427033
0.00415387
0.00404038
0.00392979
0.00382201
0.00371699
0.00361466
0.00351496
0.00341782
0.00332318
0.00323098
0.00314116
0.00305367
0.00296845
0.00288544
0.00280459
0.00272585
0.00264917
0.00257449
0.00250177
0.00243096
0.00236202
0.00229489
0.00222954
0.00216592
0.00210398
0.0020437
0.00198502
0.0019279
0.00187231
0.00181821
0.00176557
0.00171434
0.00166449
0.00161599
0.0015688
0.0015229
0.00147824
0.0014348
0.00139255
0.00135145
0.00131148
0.00127261
0.00123481
0.00119805
0.00116231
0.00112756
0.00109378
0.00106094
0.00102902
0.000997985
0.000967825
0.000938513
0.000910026
0.000882344
0.000855446
0.00082931
0.000803918
0.00077925
0.000755286
0.000732008
0.000709398
0.000687439
0.000666113
0.000645403
0.000625293
0.000605767
0.000586809
0.000568404
0.000550538
0.000533195
0.000516361
0.000500023
0.000484168
0.000468781
0.000453851
0.000439365
0.00042531
0.000411675
0.000398448
0.000385618
0.000373175
0.000361106
0.000349402
0.000338052
0.000327048
0.000316378
0.000306033
0.000296005
0.000286285
0.000276863
0.000267731
0.000258882
0.000250306
0.000241996
0.000233944
0.000226144
0.000218587
0.000211267
0.000204177
0.000197309
0.000190659
0.000184218
0.000177982
0.000171943
0.000166097
0.000160438
0.00015496
0.000149657
0.000144525
0.000139558
0.000134751
0.000130101
0.000125601
0.000121247
0.000117036
0.000112962
0.000109022
0.000105211
0.000101526
9.79627e-05
9.45175e-05
9.11867e-05
8.79669e-05
8.48547e-05
8.18468e-05
7.89402e-05
7.61317e-05
7.34183e-05
7.07973e-05
6.82658e-05
6.58212e-05
6.34609e-05
6.11825e-05
5.89838e-05
5.68623e-05
5.4816e-05
5.28429e-05
5.09411e-05
4.91089e-05
4.73445e-05
4.56465e-05
4.40135e-05
4.24444e-05
4.09381e-05
3.94938e-05
3.81108e-05
3.67888e-05
3.55275e-05
3.43271e-05
3.31881e-05
3.2111e-05
3.10971e-05
3.01479e-05
2.92653e-05
2.84518e-05
2.77102e-05
2.70443e-05
2.64579e-05
2.59559e-05
2.55433e-05
2.52258e-05
2.50089e-05
2.48983e-05
)
;
    }
}


// ************************************************************************* //
