/*--------------------------------*- C++ -*----------------------------------*\
  =========                 |
  \\      /  F ield         | OpenFOAM: The Open Source CFD Toolbox
   \\    /   O peration     | Website:  https://openfoam.org
    \\  /    A nd           | Version:  dev
     \\/     M anipulation  |
\*---------------------------------------------------------------------------*/
FoamFile
{
    format      ascii;
    class       volScalarField;
    location    "0.3";
    object      Exp1;
}
// * * * * * * * * * * * * * * * * * * * * * * * * * * * * * * * * * * * * * //

dimensions      [0 0 0 0 0 0 0];

internalField   uniform 0;

boundaryField
{
    frontAndBack
    {
        type            empty;
    }
    inlet
    {
        type            calculated;
        value           uniform 0;
    }
    outlet
    {
        type            calculated;
        value           uniform 0;
    }
    substrate
    {
        type            calculated;
        value           nonuniform List<scalar> 
400
(
2.77615e-08
8.84146e-08
1.55122e-07
2.27585e-07
3.05831e-07
3.90112e-07
4.80665e-07
5.77741e-07
6.81619e-07
7.92603e-07
9.11013e-07
1.03718e-06
1.17145e-06
1.31418e-06
1.46571e-06
1.6264e-06
1.79662e-06
1.97672e-06
2.16706e-06
2.368e-06
2.5799e-06
2.80312e-06
3.03801e-06
3.28493e-06
3.54425e-06
3.81631e-06
4.10146e-06
4.40008e-06
4.7125e-06
5.03909e-06
5.38019e-06
5.73616e-06
6.10735e-06
6.4941e-06
6.89676e-06
7.31568e-06
7.7512e-06
8.20366e-06
8.6734e-06
9.16074e-06
9.66603e-06
1.01896e-05
1.07317e-05
1.12928e-05
1.1873e-05
1.24728e-05
1.30925e-05
1.37323e-05
1.43924e-05
1.50733e-05
1.57752e-05
1.64984e-05
1.72431e-05
1.80095e-05
1.8798e-05
1.96088e-05
2.0442e-05
2.1298e-05
2.21769e-05
2.3079e-05
2.40044e-05
2.49533e-05
2.59259e-05
2.69224e-05
2.79428e-05
2.89874e-05
3.00562e-05
3.11494e-05
3.22671e-05
3.34093e-05
3.45761e-05
3.57676e-05
3.69838e-05
3.82248e-05
3.94904e-05
4.07809e-05
4.2096e-05
4.34358e-05
4.48002e-05
4.61892e-05
4.76026e-05
4.90404e-05
5.05024e-05
5.19884e-05
5.34983e-05
5.50319e-05
5.65891e-05
5.81695e-05
5.97729e-05
6.13992e-05
6.30479e-05
6.47187e-05
6.64114e-05
6.81257e-05
6.9861e-05
7.16171e-05
7.33935e-05
7.51898e-05
7.70055e-05
7.88402e-05
8.06933e-05
8.25644e-05
8.44529e-05
8.63581e-05
8.82797e-05
9.02169e-05
9.21691e-05
9.41356e-05
9.61158e-05
9.81091e-05
0.000100115
0.000102132
0.00010416
0.000106198
0.000108245
0.0001103
0.000112364
0.000114434
0.00011651
0.000118591
0.000120676
0.000122765
0.000124855
0.000126948
0.00012904
0.000131132
0.000133223
0.000135311
0.000137396
0.000139476
0.00014155
0.000143618
0.000145679
0.000147731
0.000149773
0.000151804
0.000153824
0.000155831
0.000157824
0.000159802
0.000161764
0.00016371
0.000165637
0.000167544
0.000169432
0.000171298
0.000173142
0.000174963
0.000176759
0.00017853
0.000180274
0.000181992
0.00018368
0.00018534
0.000186969
0.000188567
0.000190132
0.000191665
0.000193163
0.000194627
0.000196055
0.000197447
0.000198801
0.000200117
0.000201394
0.000202632
0.000203829
0.000204985
0.000206099
0.000207171
0.0002082
0.000209186
0.000210127
0.000211024
0.000211875
0.000212682
0.000213442
0.000214155
0.000214822
0.000215441
0.000216014
0.000216538
0.000217014
0.000217443
0.000217823
0.000218154
0.000218437
0.000218671
0.000218856
0.000218993
0.000219081
0.00021912
0.000219111
0.000219053
0.000218947
0.000218793
0.000218591
0.000218341
0.000218044
0.000217699
0.000217308
0.000216871
0.000216387
0.000215858
0.000215284
0.000214665
0.000214002
0.000213296
0.000212546
0.000211755
0.000210921
0.000210046
0.000209131
0.000208176
0.000207182
0.000206149
0.000205079
0.000203972
0.000202829
0.000201651
0.000200438
0.000199191
0.000197911
0.0001966
0.000195257
0.000193884
0.000192482
0.000191051
0.000189593
0.000188108
0.000186597
0.000185062
0.000183503
0.00018192
0.000180316
0.00017869
0.000177045
0.00017538
0.000173697
0.000171997
0.00017028
0.000168548
0.000166802
0.000165041
0.000163269
0.000161484
0.000159689
0.000157883
0.000156069
0.000154246
0.000152417
0.000150581
0.000148739
0.000146893
0.000145042
0.000143189
0.000141334
0.000139477
0.00013762
0.000135762
0.000133906
0.000132051
0.000130199
0.00012835
0.000126504
0.000124663
0.000122828
0.000120998
0.000119174
0.000117358
0.000115549
0.000113748
0.000111956
0.000110174
0.000108402
0.000106639
0.000104888
0.000103149
0.000101421
9.9705e-05
9.80021e-05
9.63124e-05
9.46362e-05
9.29739e-05
9.13259e-05
8.96926e-05
8.80742e-05
8.6471e-05
8.48834e-05
8.33117e-05
8.1756e-05
8.02167e-05
7.8694e-05
7.7188e-05
7.56991e-05
7.42273e-05
7.27729e-05
7.1336e-05
6.99167e-05
6.85152e-05
6.71316e-05
6.5766e-05
6.44184e-05
6.30891e-05
6.17779e-05
6.0485e-05
5.92103e-05
5.79541e-05
5.67161e-05
5.54965e-05
5.42953e-05
5.31124e-05
5.19477e-05
5.08014e-05
4.96732e-05
4.85633e-05
4.74714e-05
4.63975e-05
4.53416e-05
4.43036e-05
4.32833e-05
4.22807e-05
4.12956e-05
4.0328e-05
3.93777e-05
3.84445e-05
3.75284e-05
3.66293e-05
3.57469e-05
3.48811e-05
3.40317e-05
3.31987e-05
3.23818e-05
3.15809e-05
3.07958e-05
3.00263e-05
2.92722e-05
2.85335e-05
2.78098e-05
2.7101e-05
2.6407e-05
2.57275e-05
2.50623e-05
2.44113e-05
2.37742e-05
2.31509e-05
2.25412e-05
2.19448e-05
2.13616e-05
2.07914e-05
2.0234e-05
1.96892e-05
1.91568e-05
1.86366e-05
1.81284e-05
1.7632e-05
1.71472e-05
1.66739e-05
1.62119e-05
1.57609e-05
1.53207e-05
1.48913e-05
1.44724e-05
1.40639e-05
1.36656e-05
1.32772e-05
1.28988e-05
1.253e-05
1.21709e-05
1.18211e-05
1.14806e-05
1.11493e-05
1.0827e-05
1.05137e-05
1.02093e-05
9.9136e-06
9.62664e-06
9.34834e-06
9.07869e-06
8.81767e-06
8.56531e-06
8.32166e-06
8.08679e-06
7.86082e-06
7.64389e-06
7.43621e-06
7.23802e-06
7.04962e-06
6.87138e-06
6.70372e-06
6.54715e-06
6.40227e-06
6.26974e-06
6.15033e-06
6.04491e-06
5.95444e-06
5.87995e-06
5.82253e-06
5.78329e-06
5.76326e-06
)
;
    }
    Wall
    {
        type            calculated;
        value           nonuniform List<scalar> 
400
(
2.7761e-08
8.84132e-08
1.55119e-07
2.27581e-07
3.05826e-07
3.90104e-07
4.80654e-07
5.77727e-07
6.81602e-07
7.92583e-07
9.10988e-07
1.03715e-06
1.17142e-06
1.31414e-06
1.46566e-06
1.62635e-06
1.79656e-06
1.97665e-06
2.16698e-06
2.36792e-06
2.57981e-06
2.80302e-06
3.0379e-06
3.28482e-06
3.54412e-06
3.81617e-06
4.10132e-06
4.39993e-06
4.71234e-06
5.03892e-06
5.38002e-06
5.73598e-06
6.10716e-06
6.4939e-06
6.89655e-06
7.31547e-06
7.75098e-06
8.20343e-06
8.67315e-06
9.16049e-06
9.66576e-06
1.01893e-05
1.07314e-05
1.12925e-05
1.18727e-05
1.24725e-05
1.30921e-05
1.37319e-05
1.43921e-05
1.5073e-05
1.57748e-05
1.6498e-05
1.72426e-05
1.80091e-05
1.87975e-05
1.96083e-05
2.04415e-05
2.12975e-05
2.21764e-05
2.30785e-05
2.40038e-05
2.49527e-05
2.59253e-05
2.69218e-05
2.79422e-05
2.89868e-05
3.00556e-05
3.11488e-05
3.22664e-05
3.34086e-05
3.45754e-05
3.57669e-05
3.69831e-05
3.8224e-05
3.94897e-05
4.07801e-05
4.20952e-05
4.3435e-05
4.47994e-05
4.61883e-05
4.76017e-05
4.90395e-05
5.05014e-05
5.19874e-05
5.34973e-05
5.50309e-05
5.65881e-05
5.81685e-05
5.97719e-05
6.13981e-05
6.30467e-05
6.47176e-05
6.64103e-05
6.81245e-05
6.98598e-05
7.16158e-05
7.33922e-05
7.51885e-05
7.70042e-05
7.88388e-05
8.06919e-05
8.2563e-05
8.44514e-05
8.63567e-05
8.82782e-05
9.02154e-05
9.21675e-05
9.41341e-05
9.61143e-05
9.81075e-05
0.000100113
0.00010213
0.000104158
0.000106196
0.000108243
0.000110299
0.000112362
0.000114432
0.000116508
0.000118589
0.000120674
0.000122763
0.000124854
0.000126946
0.000129038
0.00013113
0.000133221
0.000135309
0.000137394
0.000139474
0.000141548
0.000143616
0.000145677
0.000147729
0.000149771
0.000151802
0.000153822
0.000155829
0.000157822
0.0001598
0.000161763
0.000163708
0.000165635
0.000167542
0.00016943
0.000171296
0.00017314
0.000174961
0.000176757
0.000178528
0.000180272
0.00018199
0.000183678
0.000185338
0.000186967
0.000188565
0.00019013
0.000191663
0.000193161
0.000194625
0.000196053
0.000197445
0.000198799
0.000200115
0.000201392
0.00020263
0.000203827
0.000204983
0.000206097
0.000207169
0.000208198
0.000209184
0.000210125
0.000211022
0.000211874
0.00021268
0.00021344
0.000214153
0.00021482
0.00021544
0.000216012
0.000216536
0.000217013
0.000217441
0.000217821
0.000218152
0.000218435
0.000218669
0.000218855
0.000218991
0.000219079
0.000219118
0.000219109
0.000219052
0.000218946
0.000218792
0.00021859
0.00021834
0.000218042
0.000217698
0.000217307
0.000216869
0.000216386
0.000215857
0.000215283
0.000214664
0.000214001
0.000213295
0.000212545
0.000211754
0.00021092
0.000210045
0.00020913
0.000208175
0.000207181
0.000206149
0.000205078
0.000203971
0.000202828
0.00020165
0.000200437
0.00019919
0.000197911
0.000196599
0.000195257
0.000193884
0.000192482
0.000191051
0.000189593
0.000188108
0.000186597
0.000185061
0.000183502
0.00018192
0.000180315
0.00017869
0.000177045
0.00017538
0.000173697
0.000171997
0.00017028
0.000168548
0.000166801
0.000165041
0.000163268
0.000161484
0.000159688
0.000157883
0.000156069
0.000154246
0.000152417
0.00015058
0.000148739
0.000146893
0.000145042
0.000143189
0.000141334
0.000139477
0.00013762
0.000135762
0.000133906
0.000132051
0.000130199
0.00012835
0.000126504
0.000124663
0.000122828
0.000120998
0.000119174
0.000117358
0.000115549
0.000113748
0.000111957
0.000110174
0.000108402
0.00010664
0.000104889
0.000103149
0.000101421
9.97053e-05
9.80024e-05
9.63127e-05
9.46365e-05
9.29742e-05
9.13262e-05
8.96928e-05
8.80744e-05
8.64713e-05
8.48837e-05
8.3312e-05
8.17563e-05
8.0217e-05
7.86943e-05
7.71883e-05
7.56994e-05
7.42276e-05
7.27732e-05
7.13363e-05
6.9917e-05
6.85155e-05
6.71319e-05
6.57663e-05
6.44188e-05
6.30894e-05
6.17782e-05
6.04853e-05
5.92107e-05
5.79544e-05
5.67165e-05
5.54969e-05
5.42956e-05
5.31127e-05
5.19481e-05
5.08017e-05
4.96736e-05
4.85636e-05
4.74717e-05
4.63979e-05
4.5342e-05
4.43039e-05
4.32836e-05
4.2281e-05
4.12959e-05
4.03283e-05
3.9378e-05
3.84448e-05
3.75287e-05
3.66296e-05
3.57471e-05
3.48814e-05
3.4032e-05
3.3199e-05
3.23821e-05
3.15812e-05
3.0796e-05
3.00265e-05
2.92725e-05
2.85337e-05
2.78101e-05
2.71013e-05
2.64072e-05
2.57277e-05
2.50625e-05
2.44115e-05
2.37744e-05
2.31511e-05
2.25414e-05
2.1945e-05
2.13619e-05
2.07917e-05
2.02343e-05
1.96894e-05
1.9157e-05
1.86368e-05
1.81286e-05
1.76322e-05
1.71474e-05
1.66741e-05
1.6212e-05
1.5761e-05
1.53209e-05
1.48915e-05
1.44726e-05
1.40641e-05
1.36657e-05
1.32774e-05
1.28989e-05
1.25302e-05
1.2171e-05
1.18212e-05
1.14808e-05
1.11494e-05
1.08272e-05
1.05139e-05
1.02094e-05
9.91373e-06
9.62676e-06
9.34846e-06
9.0788e-06
8.81778e-06
8.56542e-06
8.32177e-06
8.0869e-06
7.86092e-06
7.64399e-06
7.43631e-06
7.23812e-06
7.04972e-06
6.87148e-06
6.70382e-06
6.54725e-06
6.40237e-06
6.26983e-06
6.15043e-06
6.04501e-06
5.95454e-06
5.88004e-06
5.82262e-06
5.78338e-06
5.76336e-06
)
;
    }
}


// ************************************************************************* //
