/*--------------------------------*- C++ -*----------------------------------*\
  =========                 |
  \\      /  F ield         | OpenFOAM: The Open Source CFD Toolbox
   \\    /   O peration     | Website:  https://openfoam.org
    \\  /    A nd           | Version:  dev
     \\/     M anipulation  |
\*---------------------------------------------------------------------------*/
FoamFile
{
    format      ascii;
    class       volScalarField;
    location    "0.3";
    object      N1;
}
// * * * * * * * * * * * * * * * * * * * * * * * * * * * * * * * * * * * * * //

dimensions      [0 0 0 0 0 0 0];

internalField   nonuniform List<scalar> 
8000
(
2.10778e-07
6.71454e-07
1.17827e-06
1.72897e-06
2.32378e-06
2.96461e-06
3.65329e-06
4.39174e-06
5.1821e-06
6.02668e-06
6.92796e-06
7.88848e-06
8.91088e-06
9.99785e-06
1.11521e-05
1.23764e-05
1.36734e-05
1.50461e-05
1.6497e-05
1.8029e-05
1.96449e-05
2.13474e-05
2.31392e-05
2.50231e-05
2.7002e-05
2.90784e-05
3.12552e-05
3.35351e-05
3.59208e-05
3.84151e-05
4.10207e-05
4.37404e-05
4.65767e-05
4.95324e-05
5.26103e-05
5.58129e-05
5.91429e-05
6.2603e-05
6.61957e-05
6.99237e-05
7.37895e-05
7.77956e-05
8.19446e-05
8.62389e-05
9.06809e-05
9.52731e-05
0.000100018
0.000104917
0.000109974
0.00011519
0.000120567
0.000126108
0.000131814
0.000137688
0.000143732
0.000149947
0.000156335
0.000162898
0.000169638
0.000176556
0.000183654
0.000190933
0.000198394
0.000206039
0.000213869
0.000221884
0.000230087
0.000238477
0.000247056
0.000255824
0.000264782
0.00027393
0.000283268
0.000292797
0.000302517
0.000312427
0.000322528
0.000332819
0.0003433
0.00035397
0.000364829
0.000375875
0.000387108
0.000398527
0.00041013
0.000421916
0.000433883
0.00044603
0.000458354
0.000470854
0.000483527
0.000496372
0.000509385
0.000522564
0.000535906
0.000549407
0.000563066
0.000576878
0.000590841
0.000604949
0.0006192
0.00063359
0.000648113
0.000662767
0.000677546
0.000692446
0.000707462
0.000722588
0.000737821
0.000753154
0.000768582
0.000784099
0.0007997
0.000815379
0.000831129
0.000846945
0.00086282
0.000878747
0.00089472
0.000910733
0.000926778
0.000942848
0.000958936
0.000975036
0.000991139
0.00100724
0.00102333
0.0010394
0.00105544
0.00107145
0.00108741
0.00110333
0.00111919
0.00113498
0.0011507
0.00116634
0.00118188
0.00119733
0.00121267
0.0012279
0.001243
0.00125797
0.00127281
0.00128749
0.00130203
0.00131639
0.00133059
0.0013446
0.00135843
0.00137207
0.0013855
0.00139872
0.00141172
0.0014245
0.00143704
0.00144934
0.0014614
0.0014732
0.00148474
0.00149601
0.00150701
0.00151773
0.00152815
0.00153829
0.00154813
0.00155766
0.00156688
0.00157579
0.00158437
0.00159263
0.00160056
0.00160815
0.0016154
0.00162231
0.00162888
0.00163509
0.00164095
0.00164645
0.00165159
0.00165637
0.00166078
0.00166482
0.0016685
0.00167181
0.00167474
0.0016773
0.00167949
0.0016813
0.00168274
0.0016838
0.00168448
0.0016848
0.00168474
0.00168431
0.0016835
0.00168233
0.00168078
0.00167887
0.00167659
0.00167395
0.00167095
0.0016676
0.00166389
0.00165983
0.00165542
0.00165067
0.00164558
0.00164015
0.0016344
0.00162832
0.00162191
0.00161519
0.00160816
0.00160083
0.00159319
0.00158525
0.00157703
0.00156852
0.00155974
0.00155068
0.00154136
0.00153177
0.00152194
0.00151186
0.00150154
0.00149098
0.0014802
0.00146921
0.00145799
0.00144658
0.00143496
0.00142316
0.00141117
0.00139901
0.00138667
0.00137417
0.00136152
0.00134872
0.00133578
0.00132271
0.00130951
0.00129619
0.00128276
0.00126923
0.0012556
0.00124188
0.00122807
0.00121419
0.00120024
0.00118622
0.00117215
0.00115803
0.00114387
0.00112968
0.00111545
0.0011012
0.00108693
0.00107265
0.00105837
0.00104409
0.00102981
0.00101555
0.0010013
0.000987083
0.000972892
0.000958735
0.000944618
0.000930545
0.000916522
0.000902553
0.000888643
0.000874796
0.000861017
0.00084731
0.000833679
0.000820128
0.000806661
0.000793281
0.000779993
0.000766799
0.000753704
0.000740709
0.000727818
0.000715035
0.000702361
0.0006898
0.000677353
0.000665024
0.000652815
0.000640727
0.000628763
0.000616925
0.000605215
0.000593633
0.000582182
0.000570864
0.000559678
0.000548627
0.000537712
0.000526934
0.000516293
0.000505791
0.000495427
0.000485203
0.00047512
0.000465176
0.000455374
0.000445712
0.000436191
0.000426812
0.000417573
0.000408476
0.000399519
0.000390703
0.000382027
0.00037349
0.000365093
0.000356834
0.000348713
0.00034073
0.000332883
0.000325172
0.000317597
0.000310155
0.000302846
0.00029567
0.000288624
0.000281709
0.000274922
0.000268264
0.000261732
0.000255325
0.000249042
0.000242883
0.000236845
0.000230927
0.000225128
0.000219446
0.00021388
0.000208429
0.000203091
0.000197865
0.00019275
0.000187743
0.000182843
0.00017805
0.00017336
0.000168774
0.000164289
0.000159903
0.000155617
0.000151427
0.000147332
0.000143331
0.000139422
0.000135605
0.000131877
0.000128236
0.000124683
0.000121214
0.000117829
0.000114527
0.000111305
0.000108163
0.0001051
0.000102113
9.92025e-05
9.63665e-05
9.36041e-05
9.09141e-05
8.82956e-05
8.57475e-05
8.32691e-05
8.08595e-05
7.8518e-05
7.62439e-05
7.40369e-05
7.18966e-05
6.98228e-05
6.78153e-05
6.58745e-05
6.40006e-05
6.21942e-05
6.04563e-05
5.8788e-05
5.71907e-05
5.56665e-05
5.42176e-05
5.28467e-05
5.15573e-05
5.03532e-05
4.92389e-05
4.82196e-05
4.73012e-05
4.64905e-05
4.57947e-05
4.52218e-05
4.47802e-05
4.44784e-05
4.43243e-05
2.06487e-07
6.61901e-07
1.16446e-06
1.7133e-06
2.30824e-06
2.95049e-06
3.64163e-06
4.3835e-06
5.1782e-06
6.02807e-06
6.93559e-06
7.90336e-06
8.93408e-06
1.00305e-05
1.11954e-05
1.24316e-05
1.37419e-05
1.51293e-05
1.65964e-05
1.81463e-05
1.97817e-05
2.15054e-05
2.33204e-05
2.52295e-05
2.72355e-05
2.93414e-05
3.15498e-05
3.38638e-05
3.6286e-05
3.88195e-05
4.14669e-05
4.42312e-05
4.71151e-05
5.01216e-05
5.32532e-05
5.6513e-05
5.99035e-05
6.34277e-05
6.70881e-05
7.08876e-05
7.48287e-05
7.89142e-05
8.31466e-05
8.75286e-05
9.20628e-05
9.67515e-05
0.000101597
0.000106603
0.00011177
0.000117101
0.000122599
0.000128266
0.000134103
0.000140114
0.0001463
0.000152662
0.000159204
0.000165926
0.00017283
0.000179919
0.000187194
0.000194656
0.000202306
0.000210147
0.000218178
0.000226403
0.00023482
0.000243432
0.000252239
0.000261242
0.000270441
0.000279837
0.00028943
0.000299222
0.00030921
0.000319397
0.00032978
0.000340361
0.000351139
0.000362113
0.000373283
0.000384647
0.000396205
0.000407956
0.000419898
0.000432029
0.000444349
0.000456855
0.000469546
0.000482419
0.000495473
0.000508704
0.00052211
0.000535689
0.000549437
0.000563352
0.000577429
0.000591667
0.00060606
0.000620606
0.0006353
0.000650139
0.000665117
0.00068023
0.000695475
0.000710845
0.000726337
0.000741944
0.000757662
0.000773485
0.000789407
0.000805423
0.000821526
0.000837711
0.000853971
0.0008703
0.000886692
0.000903139
0.000919634
0.000936172
0.000952744
0.000969344
0.000985963
0.0010026
0.00101923
0.00103587
0.00105249
0.0010691
0.00108568
0.00110223
0.00111873
0.00113518
0.00115158
0.0011679
0.00118416
0.00120033
0.0012164
0.00123238
0.00124825
0.001264
0.00127962
0.00129511
0.00131046
0.00132566
0.00134069
0.00135556
0.00137025
0.00138476
0.00139908
0.00141319
0.0014271
0.00144079
0.00145426
0.00146749
0.00148049
0.00149323
0.00150572
0.00151795
0.00152991
0.0015416
0.001553
0.00156411
0.00157493
0.00158544
0.00159565
0.00160554
0.00161511
0.00162436
0.00163327
0.00164185
0.00165009
0.00165798
0.00166552
0.00167271
0.00167954
0.00168601
0.00169211
0.00169784
0.0017032
0.00170819
0.0017128
0.00171703
0.00172088
0.00172435
0.00172743
0.00173013
0.00173244
0.00173437
0.0017359
0.00173705
0.00173781
0.00173819
0.00173818
0.00173779
0.00173701
0.00173585
0.00173431
0.00173238
0.00173008
0.00172741
0.00172436
0.00172095
0.00171716
0.00171302
0.00170852
0.00170366
0.00169845
0.0016929
0.001687
0.00168077
0.0016742
0.00166731
0.00166009
0.00165256
0.00164471
0.00163656
0.00162811
0.00161937
0.00161033
0.00160102
0.00159143
0.00158158
0.00157146
0.00156108
0.00155046
0.0015396
0.0015285
0.00151718
0.00150564
0.00149388
0.00148192
0.00146976
0.00145741
0.00144488
0.00143217
0.00141929
0.00140625
0.00139306
0.00137972
0.00136625
0.00135264
0.00133891
0.00132507
0.00131111
0.00129706
0.00128291
0.00126867
0.00125435
0.00123996
0.00122551
0.001211
0.00119643
0.00118182
0.00116718
0.0011525
0.00113779
0.00112307
0.00110834
0.0010936
0.00107886
0.00106413
0.00104941
0.00103471
0.00102003
0.00100538
0.000990771
0.000976199
0.000961672
0.000947195
0.000932774
0.000918414
0.000904118
0.000889892
0.000875739
0.000861665
0.000847673
0.000833767
0.000819951
0.000806228
0.000792603
0.000779079
0.000765659
0.000752345
0.000739142
0.000726052
0.000713078
0.000700222
0.000687487
0.000674875
0.000662389
0.00065003
0.000637801
0.000625703
0.000613739
0.000601909
0.000590215
0.000578658
0.000567241
0.000555963
0.000544827
0.000533832
0.00052298
0.000512271
0.000501707
0.000491287
0.000481011
0.000470881
0.000460897
0.000451058
0.000441364
0.000431817
0.000422414
0.000413157
0.000404045
0.000395078
0.000386255
0.000377575
0.000369039
0.000360645
0.000352393
0.000344282
0.000336311
0.00032848
0.000320787
0.000313231
0.000305812
0.000298529
0.00029138
0.000284364
0.00027748
0.000270726
0.000264103
0.000257607
0.000251239
0.000244995
0.000238877
0.000232881
0.000227006
0.000221251
0.000215615
0.000210095
0.000204691
0.000199401
0.000194224
0.000189157
0.0001842
0.00017935
0.000174607
0.000169969
0.000165434
0.000161001
0.000156667
0.000152432
0.000148294
0.000144252
0.000140304
0.000136448
0.000132683
0.000129007
0.000125419
0.000121918
0.000118502
0.00011517
0.00011192
0.000108751
0.000105661
0.00010265
9.97165e-05
9.68587e-05
9.40758e-05
9.13668e-05
8.87305e-05
8.61662e-05
8.3673e-05
8.12501e-05
7.8897e-05
7.6613e-05
7.43979e-05
7.22515e-05
7.01735e-05
6.81643e-05
6.62242e-05
6.43537e-05
6.25538e-05
6.08256e-05
5.91706e-05
5.75908e-05
5.60886e-05
5.46667e-05
5.33286e-05
5.20783e-05
5.09204e-05
4.98603e-05
4.89041e-05
4.80587e-05
4.73318e-05
4.67319e-05
4.6268e-05
4.59497e-05
4.57862e-05
2.0263e-07
6.50029e-07
1.14329e-06
1.68374e-06
2.27201e-06
2.9091e-06
3.59636e-06
4.33549e-06
5.12848e-06
5.97759e-06
6.88529e-06
7.85417e-06
8.88695e-06
9.9864e-06
1.11553e-05
1.23966e-05
1.37132e-05
1.51079e-05
1.65836e-05
1.81433e-05
1.97899e-05
2.15263e-05
2.33554e-05
2.52802e-05
2.73036e-05
2.94285e-05
3.1658e-05
3.39948e-05
3.6442e-05
3.90024e-05
4.16791e-05
4.4475e-05
4.7393e-05
5.04359e-05
5.36067e-05
5.69084e-05
6.03437e-05
6.39155e-05
6.76267e-05
7.14801e-05
7.54785e-05
7.96246e-05
8.39211e-05
8.83708e-05
9.29764e-05
9.77404e-05
0.000102665
0.000107754
0.000113008
0.000118432
0.000124025
0.000129793
0.000135735
0.000141855
0.000148155
0.000154637
0.000161303
0.000168154
0.000175194
0.000182422
0.000189842
0.000197454
0.00020526
0.000213262
0.000221461
0.000229858
0.000238454
0.00024725
0.000256247
0.000265446
0.000274847
0.000284452
0.00029426
0.000304271
0.000314487
0.000324906
0.000335529
0.000346356
0.000357385
0.000368617
0.000380052
0.000391687
0.000403522
0.000415556
0.000427788
0.000440216
0.000452838
0.000465654
0.00047866
0.000491854
0.000505236
0.000518801
0.000532547
0.000546472
0.000560572
0.000574845
0.000589287
0.000603894
0.000618663
0.00063359
0.000648671
0.000663901
0.000679277
0.000694794
0.000710446
0.000726229
0.000742139
0.000758169
0.000774314
0.000790569
0.000806927
0.000823383
0.000839931
0.000856564
0.000873277
0.000890062
0.000906912
0.000923821
0.000940782
0.000957788
0.00097483
0.000991903
0.001009
0.00102611
0.00104322
0.00106034
0.00107745
0.00109454
0.0011116
0.00112863
0.00114562
0.00116256
0.00117944
0.00119625
0.00121299
0.00122964
0.0012462
0.00126266
0.00127901
0.00129524
0.00131134
0.0013273
0.00134312
0.00135879
0.00137429
0.00138962
0.00140477
0.00141974
0.0014345
0.00144907
0.00146341
0.00147754
0.00149144
0.0015051
0.00151852
0.00153168
0.00154458
0.00155721
0.00156957
0.00158165
0.00159343
0.00160492
0.00161611
0.00162698
0.00163754
0.00164778
0.00165768
0.00166726
0.00167649
0.00168538
0.00169392
0.00170211
0.00170993
0.0017174
0.00172449
0.00173121
0.00173756
0.00174353
0.00174912
0.00175432
0.00175913
0.00176356
0.00176759
0.00177123
0.00177448
0.00177732
0.00177977
0.00178183
0.00178348
0.00178474
0.0017856
0.00178606
0.00178612
0.0017858
0.00178507
0.00178395
0.00178243
0.00178052
0.00177823
0.00177555
0.00177249
0.00176904
0.00176523
0.00176103
0.00175647
0.00175154
0.00174625
0.00174061
0.00173461
0.00172826
0.00172157
0.00171455
0.00170719
0.0016995
0.00169149
0.00168317
0.00167454
0.0016656
0.00165637
0.00164685
0.00163704
0.00162696
0.0016166
0.00160598
0.00159511
0.00158399
0.00157262
0.00156102
0.0015492
0.00153715
0.00152489
0.00151243
0.00149977
0.00148692
0.00147389
0.00146068
0.00144731
0.00143378
0.00142009
0.00140627
0.0013923
0.00137821
0.001364
0.00134968
0.00133525
0.00132072
0.0013061
0.0012914
0.00127662
0.00126178
0.00124687
0.00123191
0.00121691
0.00120186
0.00118678
0.00117167
0.00115654
0.0011414
0.00112625
0.00111111
0.00109596
0.00108083
0.00106572
0.00105063
0.00103557
0.00102055
0.00100556
0.000990627
0.00097574
0.00096091
0.000946141
0.000931437
0.000916805
0.000902248
0.00088777
0.000873376
0.00085907
0.000844856
0.000830737
0.000816718
0.000802802
0.000788993
0.000775293
0.000761706
0.000748234
0.000734881
0.000721649
0.000708542
0.00069556
0.000682707
0.000669985
0.000657396
0.000644941
0.000632623
0.000620444
0.000608403
0.000596505
0.000584748
0.000573135
0.000561667
0.000550345
0.000539169
0.000528141
0.00051726
0.000506528
0.000495945
0.000485511
0.000475226
0.000465091
0.000455106
0.000445271
0.000435584
0.000426048
0.00041666
0.000407421
0.00039833
0.000389388
0.000380592
0.000371943
0.000363439
0.000355081
0.000346867
0.000338797
0.000330869
0.000323083
0.000315436
0.00030793
0.000300561
0.00029333
0.000286234
0.000279273
0.000272446
0.00026575
0.000259185
0.000252749
0.000246441
0.00024026
0.000234203
0.00022827
0.000222459
0.000216768
0.000211197
0.000205742
0.000200404
0.000195179
0.000190068
0.000185067
0.000180176
0.000175393
0.000170716
0.000166144
0.000161675
0.000157307
0.00015304
0.000148871
0.000144798
0.000140821
0.000136937
0.000133146
0.000129445
0.000125834
0.00012231
0.000118872
0.000115519
0.00011225
0.000109063
0.000105956
0.000102929
9.99803e-05
9.71088e-05
9.43132e-05
9.15927e-05
8.89463e-05
8.6373e-05
8.38721e-05
8.1443e-05
7.90852e-05
7.67981e-05
7.45816e-05
7.24356e-05
7.03602e-05
6.83557e-05
6.64228e-05
6.45622e-05
6.27752e-05
6.10632e-05
5.94283e-05
5.78728e-05
5.63995e-05
5.50119e-05
5.37141e-05
5.25109e-05
5.14076e-05
5.04107e-05
4.95275e-05
4.8766e-05
4.81353e-05
4.76454e-05
4.73073e-05
4.71323e-05
1.98796e-07
6.37597e-07
1.12064e-06
1.6503e-06
2.22824e-06
2.85584e-06
3.53461e-06
4.26625e-06
5.05277e-06
5.89637e-06
6.7995e-06
7.76473e-06
8.79474e-06
9.89232e-06
1.10603e-05
1.23015e-05
1.36189e-05
1.50155e-05
1.6494e-05
1.80575e-05
1.9709e-05
2.14515e-05
2.32878e-05
2.52211e-05
2.72543e-05
2.93904e-05
3.16325e-05
3.39835e-05
3.64465e-05
3.90245e-05
4.17205e-05
4.45375e-05
4.74786e-05
5.05468e-05
5.3745e-05
5.70762e-05
6.05435e-05
6.41497e-05
6.78979e-05
7.17908e-05
7.58315e-05
8.00227e-05
8.43673e-05
8.8868e-05
9.35278e-05
9.83491e-05
0.000103335
0.000108488
0.00011381
0.000119304
0.000124973
0.000130819
0.000136844
0.000143051
0.000149442
0.000156018
0.000162783
0.000169738
0.000176885
0.000184226
0.000191762
0.000199496
0.000207429
0.000215562
0.000223897
0.000232435
0.000241177
0.000250124
0.000259278
0.000268638
0.000278207
0.000287983
0.000297969
0.000308163
0.000318567
0.00032918
0.000340003
0.000351034
0.000362274
0.000373723
0.000385379
0.000397242
0.00040931
0.000421583
0.000434059
0.000446738
0.000459616
0.000472693
0.000485966
0.000499434
0.000513093
0.000526943
0.000540979
0.000555199
0.0005696
0.000584179
0.000598932
0.000613856
0.000628947
0.000644201
0.000659615
0.000675183
0.000690901
0.000706765
0.00072277
0.000738911
0.000755182
0.000771578
0.000788093
0.000804723
0.00082146
0.000838299
0.000855234
0.000872258
0.000889365
0.000906548
0.0009238
0.000941113
0.000958482
0.000975898
0.000993354
0.00101084
0.00102836
0.00104589
0.00106342
0.00108096
0.0010985
0.00111601
0.00113351
0.00115097
0.00116839
0.00118576
0.00120307
0.00122031
0.00123748
0.00125457
0.00127156
0.00128845
0.00130522
0.00132188
0.00133841
0.0013548
0.00137104
0.00138713
0.00140305
0.0014188
0.00143437
0.00144974
0.00146492
0.00147989
0.00149464
0.00150917
0.00152346
0.00153751
0.00155131
0.00156485
0.00157813
0.00159114
0.00160386
0.0016163
0.00162843
0.00164027
0.0016518
0.00166301
0.0016739
0.00168446
0.00169468
0.00170456
0.0017141
0.00172328
0.00173211
0.00174057
0.00174867
0.0017564
0.00176374
0.00177071
0.0017773
0.00178349
0.0017893
0.00179471
0.00179973
0.00180435
0.00180856
0.00181238
0.00181579
0.00181879
0.00182139
0.00182357
0.00182536
0.00182673
0.00182769
0.00182825
0.0018284
0.00182815
0.00182749
0.00182643
0.00182496
0.00182309
0.00182082
0.00181816
0.0018151
0.00181166
0.00180783
0.00180361
0.00179902
0.00179405
0.00178871
0.001783
0.00177693
0.0017705
0.00176372
0.0017566
0.00174913
0.00174133
0.00173319
0.00172474
0.00171596
0.00170687
0.00169748
0.00168779
0.0016778
0.00166754
0.00165699
0.00164617
0.00163509
0.00162375
0.00161216
0.00160033
0.00158827
0.00157598
0.00156347
0.00155075
0.00153783
0.00152471
0.0015114
0.00149791
0.00148425
0.00147043
0.00145645
0.00144232
0.00142805
0.00141365
0.00139912
0.00138448
0.00136973
0.00135487
0.00133992
0.00132489
0.00130977
0.00129459
0.00127934
0.00126403
0.00124867
0.00123328
0.00121784
0.00120238
0.00118689
0.00117139
0.00115589
0.00114038
0.00112487
0.00110938
0.0010939
0.00107845
0.00106303
0.00104764
0.00103229
0.00101699
0.00100174
0.000986541
0.000971408
0.000956341
0.000941347
0.000926428
0.00091159
0.000896837
0.000882173
0.000867603
0.00085313
0.000838758
0.000824491
0.000810332
0.000796285
0.000782353
0.000768538
0.000754845
0.000741275
0.000727832
0.000714517
0.000701334
0.000688284
0.00067537
0.000662593
0.000649956
0.00063746
0.000625107
0.000612898
0.000600835
0.000588919
0.00057715
0.000565531
0.000554062
0.000542743
0.000531575
0.00052056
0.000509697
0.000498987
0.000488429
0.000478025
0.000467774
0.000457676
0.000447732
0.00043794
0.000428301
0.000418814
0.00040948
0.000400296
0.000391264
0.000382382
0.000373649
0.000365065
0.000356629
0.000348339
0.000340196
0.000332198
0.000324344
0.000316633
0.000309063
0.000301634
0.000294345
0.000287193
0.000280178
0.000273299
0.000266554
0.000259941
0.000253459
0.000247107
0.000240883
0.000234786
0.000228814
0.000222966
0.00021724
0.000211634
0.000206147
0.000200777
0.000195523
0.000190383
0.000185355
0.000180439
0.000175631
0.000170931
0.000166336
0.000161846
0.000157459
0.000153172
0.000148985
0.000144896
0.000140903
0.000137004
0.000133199
0.000129485
0.000125861
0.000122326
0.000118878
0.000115515
0.000112237
0.000109042
0.000105928
0.000102895
9.99409e-05
9.7065e-05
9.4266e-05
9.1543e-05
8.88951e-05
8.63216e-05
8.38215e-05
8.13945e-05
7.90401e-05
7.6758e-05
7.45481e-05
7.24104e-05
7.03453e-05
6.83533e-05
6.64353e-05
6.45923e-05
6.2826e-05
6.11383e-05
5.95314e-05
5.80084e-05
5.65726e-05
5.52282e-05
5.398e-05
5.28337e-05
5.17959e-05
5.0874e-05
5.00767e-05
4.94139e-05
4.88967e-05
4.85376e-05
4.83504e-05
1.95178e-07
6.25806e-07
1.09918e-06
1.61795e-06
2.18446e-06
2.80065e-06
3.46843e-06
4.18975e-06
4.96673e-06
5.80166e-06
6.69699e-06
7.65528e-06
8.67922e-06
9.77155e-06
1.09351e-05
1.21727e-05
1.34873e-05
1.48818e-05
1.63591e-05
1.79223e-05
1.95743e-05
2.13181e-05
2.31567e-05
2.50933e-05
2.71308e-05
2.92723e-05
3.15209e-05
3.38796e-05
3.63516e-05
3.894e-05
4.16478e-05
4.44781e-05
4.7434e-05
5.05187e-05
5.37351e-05
5.70864e-05
6.05756e-05
6.42057e-05
6.79798e-05
7.19009e-05
7.59718e-05
8.01957e-05
8.45753e-05
8.91136e-05
9.38135e-05
9.86776e-05
0.000103709
0.00010891
0.000114283
0.000119832
0.000125558
0.000131465
0.000137554
0.000143827
0.000150289
0.000156939
0.000163782
0.000170818
0.00017805
0.00018548
0.000193109
0.00020094
0.000208973
0.000217211
0.000225655
0.000234306
0.000243165
0.000252234
0.000261514
0.000271005
0.000280709
0.000290625
0.000300755
0.000311099
0.000321656
0.000332428
0.000343414
0.000354613
0.000366027
0.000377653
0.000389492
0.000401542
0.000413803
0.000426274
0.000438953
0.000451838
0.000464929
0.000478223
0.000491719
0.000505414
0.000519306
0.000533393
0.000547671
0.000562138
0.000576791
0.000591627
0.000606641
0.000621832
0.000637194
0.000652724
0.000668418
0.000684271
0.000700279
0.000716437
0.000732739
0.000749182
0.00076576
0.000782467
0.000799298
0.000816246
0.000833306
0.000850472
0.000867737
0.000885094
0.000902538
0.000920061
0.000937656
0.000955316
0.000973034
0.000990803
0.00100861
0.00102646
0.00104433
0.00106222
0.00108013
0.00109803
0.00111593
0.00113382
0.00115168
0.00116952
0.00118731
0.00120505
0.00122274
0.00124036
0.00125791
0.00127537
0.00129273
0.00131
0.00132715
0.00134418
0.00136109
0.00137785
0.00139447
0.00141092
0.00142722
0.00144333
0.00145927
0.00147501
0.00149054
0.00150587
0.00152098
0.00153586
0.0015505
0.0015649
0.00157904
0.00159293
0.00160654
0.00161987
0.00163293
0.00164568
0.00165814
0.00167029
0.00168213
0.00169364
0.00170483
0.00171568
0.00172619
0.00173635
0.00174616
0.00175561
0.0017647
0.00177342
0.00178177
0.00178973
0.00179732
0.00180451
0.00181132
0.00181773
0.00182374
0.00182935
0.00183456
0.00183936
0.00184375
0.00184773
0.0018513
0.00185445
0.00185719
0.00185951
0.00186142
0.00186291
0.00186398
0.00186464
0.00186488
0.00186471
0.00186413
0.00186313
0.00186172
0.0018599
0.00185767
0.00185504
0.00185201
0.00184858
0.00184475
0.00184053
0.00183592
0.00183093
0.00182556
0.00181982
0.0018137
0.00180722
0.00180038
0.00179318
0.00178564
0.00177775
0.00176952
0.00176096
0.00175207
0.00174286
0.00173335
0.00172352
0.0017134
0.00170298
0.00169228
0.0016813
0.00167005
0.00165853
0.00164676
0.00163474
0.00162249
0.00160999
0.00159728
0.00158434
0.0015712
0.00155786
0.00154432
0.0015306
0.0015167
0.00150263
0.0014884
0.00147402
0.00145949
0.00144483
0.00143003
0.00141512
0.00140009
0.00138496
0.00136972
0.0013544
0.001339
0.00132352
0.00130798
0.00129238
0.00127672
0.00126102
0.00124528
0.00122951
0.00121372
0.00119791
0.0011821
0.00116628
0.00115046
0.00113465
0.00111886
0.00110309
0.00108735
0.00107165
0.00105598
0.00104036
0.00102479
0.00100928
0.000993833
0.000978451
0.00096314
0.000947907
0.000932754
0.000917688
0.000902712
0.000887831
0.000873047
0.000858367
0.000843792
0.000829328
0.000814976
0.000800741
0.000786626
0.000772634
0.000758767
0.000745029
0.000731421
0.000717947
0.000704609
0.000691409
0.000678349
0.000665431
0.000652656
0.000640027
0.000627545
0.000615211
0.000603027
0.000590993
0.000579111
0.000567382
0.000555807
0.000544386
0.00053312
0.000522009
0.000511054
0.000500255
0.000489612
0.000479125
0.000468795
0.000458621
0.000448603
0.000438741
0.000429035
0.000419483
0.000410086
0.000400843
0.000391753
0.000382816
0.000374031
0.000365397
0.000356913
0.000348578
0.000340392
0.000332352
0.000324459
0.00031671
0.000309105
0.000301642
0.00029432
0.000287138
0.000280095
0.000273188
0.000266417
0.00025978
0.000253275
0.000246902
0.000240658
0.000234543
0.000228553
0.000222688
0.000216947
0.000211327
0.000205827
0.000200445
0.00019518
0.00019003
0.000184994
0.000180069
0.000175253
0.000170547
0.000165947
0.000161451
0.00015706
0.000152769
0.000148579
0.000144488
0.000140493
0.000136593
0.000132787
0.000129074
0.000125451
0.000121917
0.00011847
0.00011511
0.000111835
0.000108643
0.000105534
0.000102506
9.9557e-05
9.66872e-05
9.38951e-05
9.11797e-05
8.85403e-05
8.59761e-05
8.34865e-05
8.10709e-05
7.87292e-05
7.64611e-05
7.42668e-05
7.21464e-05
7.01005e-05
6.81299e-05
6.62357e-05
6.44193e-05
6.26828e-05
6.10284e-05
5.94591e-05
5.79783e-05
5.65901e-05
5.52995e-05
5.41123e-05
5.30353e-05
5.20762e-05
5.12444e-05
5.05503e-05
5.00062e-05
4.96263e-05
4.94269e-05
1.91976e-07
6.15336e-07
1.08014e-06
1.58898e-06
2.14455e-06
2.74929e-06
3.40552e-06
4.11556e-06
4.88177e-06
5.70657e-06
6.5925e-06
7.54215e-06
8.55822e-06
9.64344e-06
1.08006e-05
1.20325e-05
1.33422e-05
1.47323e-05
1.6206e-05
1.77662e-05
1.94159e-05
2.11581e-05
2.29959e-05
2.49323e-05
2.69705e-05
2.91135e-05
3.13644e-05
3.37265e-05
3.62027e-05
3.87964e-05
4.15106e-05
4.43485e-05
4.73132e-05
5.04079e-05
5.36358e-05
5.69999e-05
6.05034e-05
6.41495e-05
6.79411e-05
7.18814e-05
7.59734e-05
8.02201e-05
8.46245e-05
8.91896e-05
9.39183e-05
9.88134e-05
0.000103878
0.000109114
0.000114526
0.000120115
0.000125884
0.000131835
0.000137972
0.000144297
0.000150812
0.000157519
0.000164421
0.00017152
0.000178817
0.000186315
0.000194016
0.000201922
0.000210034
0.000218353
0.000226882
0.000235622
0.000244574
0.000253739
0.000263118
0.000272713
0.000282523
0.00029255
0.000302795
0.000313257
0.000323937
0.000334835
0.000345952
0.000357286
0.000368838
0.000380607
0.000392592
0.000404794
0.00041721
0.00042984
0.000442682
0.000455736
0.000468999
0.000482469
0.000496145
0.000510025
0.000524106
0.000538386
0.000552861
0.00056753
0.000582389
0.000597434
0.000612663
0.000628071
0.000643656
0.000659412
0.000675336
0.000691423
0.000707669
0.000724068
0.000740617
0.00075731
0.00077414
0.000791104
0.000808195
0.000825407
0.000842734
0.00086017
0.000877709
0.000895344
0.000913067
0.000930873
0.000948754
0.000966703
0.000984713
0.00100277
0.00102088
0.00103903
0.0010572
0.0010754
0.0010936
0.00111182
0.00113003
0.00114822
0.0011664
0.00118454
0.00120265
0.00122071
0.00123871
0.00125665
0.00127451
0.00129229
0.00130998
0.00132756
0.00134503
0.00136238
0.0013796
0.00139668
0.00141361
0.00143039
0.00144699
0.00146342
0.00147967
0.00149572
0.00151157
0.0015272
0.00154261
0.00155779
0.00157274
0.00158743
0.00160187
0.00161605
0.00162995
0.00164357
0.00165691
0.00166994
0.00168268
0.0016951
0.0017072
0.00171898
0.00173042
0.00174153
0.00175229
0.0017627
0.00177275
0.00178244
0.00179175
0.0018007
0.00180926
0.00181744
0.00182523
0.00183263
0.00183963
0.00184623
0.00185243
0.00185822
0.0018636
0.00186856
0.00187311
0.00187724
0.00188096
0.00188425
0.00188712
0.00188957
0.00189159
0.00189319
0.00189437
0.00189512
0.00189545
0.00189536
0.00189486
0.00189393
0.00189257
0.00189081
0.00188862
0.00188603
0.00188303
0.00187962
0.00187581
0.0018716
0.00186699
0.00186199
0.00185661
0.00185084
0.0018447
0.00183818
0.0018313
0.00182405
0.00181645
0.0018085
0.0018002
0.00179156
0.00178259
0.0017733
0.00176368
0.00175375
0.00174352
0.00173299
0.00172216
0.00171106
0.00169967
0.00168802
0.0016761
0.00166393
0.00165152
0.00163886
0.00162598
0.00161287
0.00159955
0.00158603
0.0015723
0.00155839
0.0015443
0.00153003
0.00151559
0.001501
0.00148626
0.00147138
0.00145636
0.00144123
0.00142597
0.00141061
0.00139514
0.00137958
0.00136394
0.00134822
0.00133243
0.00131658
0.00130068
0.00128473
0.00126874
0.00125271
0.00123667
0.0012206
0.00120452
0.00118844
0.00117236
0.00115629
0.00114023
0.0011242
0.00110819
0.00109222
0.00107629
0.0010604
0.00104457
0.00102879
0.00101307
0.000997425
0.000981848
0.000966348
0.000950931
0.000935599
0.000920359
0.000905213
0.000890168
0.000875225
0.00086039
0.000845666
0.000831056
0.000816564
0.000802194
0.000787947
0.000773828
0.000759839
0.000745982
0.000732261
0.000718677
0.000705233
0.000691931
0.000678773
0.000665761
0.000652896
0.000640181
0.000627616
0.000615202
0.000602942
0.000590836
0.000578885
0.000567091
0.000555452
0.000543972
0.000532649
0.000521484
0.000510477
0.00049963
0.000488941
0.000478412
0.000468041
0.000457829
0.000447776
0.00043788
0.000428142
0.000418562
0.000409138
0.00039987
0.000390757
0.000381799
0.000372995
0.000364343
0.000355844
0.000347495
0.000339296
0.000331245
0.000323342
0.000315585
0.000307973
0.000300504
0.000293178
0.000285993
0.000278947
0.00027204
0.000265269
0.000258633
0.00025213
0.00024576
0.00023952
0.000233408
0.000227424
0.000221566
0.000215831
0.000210218
0.000204726
0.000199353
0.000194097
0.000188956
0.00018393
0.000179015
0.000174211
0.000169516
0.000164927
0.000160444
0.000156065
0.000151787
0.00014761
0.000143532
0.000139551
0.000135665
0.000131873
0.000128174
0.000124565
0.000121046
0.000117615
0.00011427
0.000111011
0.000107835
0.000104742
0.00010173
9.8799e-05
9.59467e-05
9.31726e-05
9.04759e-05
8.78557e-05
8.53114e-05
8.28426e-05
8.04488e-05
7.81299e-05
7.58859e-05
7.3717e-05
7.16238e-05
6.96069e-05
6.76675e-05
6.58071e-05
6.40274e-05
6.23309e-05
6.07204e-05
5.91994e-05
5.77721e-05
5.64434e-05
5.52192e-05
5.41066e-05
5.31138e-05
5.22502e-05
5.15273e-05
5.09585e-05
5.05594e-05
5.03488e-05
1.89295e-07
6.06562e-07
1.0642e-06
1.56465e-06
2.11074e-06
2.70523e-06
3.35083e-06
4.0502e-06
4.80596e-06
5.62075e-06
6.49721e-06
7.43802e-06
8.44588e-06
9.52352e-06
1.06737e-05
1.18993e-05
1.32032e-05
1.45881e-05
1.60571e-05
1.76132e-05
1.92592e-05
2.09983e-05
2.28335e-05
2.47679e-05
2.68047e-05
2.89469e-05
3.11977e-05
3.35602e-05
3.60378e-05
3.86335e-05
4.13505e-05
4.41921e-05
4.71615e-05
5.02619e-05
5.34964e-05
5.68682e-05
6.03806e-05
6.40367e-05
6.78396e-05
7.17925e-05
7.58985e-05
8.01606e-05
8.4582e-05
8.91655e-05
9.39142e-05
9.88311e-05
0.000103919
0.000109181
0.000114619
0.000120237
0.000126037
0.000132022
0.000138194
0.000144556
0.00015111
0.000157859
0.000164804
0.000171949
0.000179295
0.000186845
0.0001946
0.000202562
0.000210732
0.000219114
0.000227707
0.000236514
0.000245536
0.000254774
0.000264229
0.000273902
0.000283794
0.000293906
0.000304239
0.000314792
0.000325567
0.000336562
0.000347779
0.000359217
0.000370876
0.000382756
0.000394855
0.000407174
0.000419711
0.000432465
0.000445434
0.000458619
0.000472016
0.000485624
0.000499441
0.000513465
0.000527694
0.000542125
0.000556756
0.000571583
0.000586603
0.000601813
0.000617211
0.000632791
0.00064855
0.000664485
0.000680591
0.000696863
0.000713297
0.000729888
0.000746631
0.000763522
0.000780553
0.000797721
0.000815018
0.00083244
0.00084998
0.000867631
0.000885388
0.000903243
0.000921191
0.000939222
0.000957332
0.000975511
0.000993754
0.00101205
0.0010304
0.00104878
0.00106719
0.00108563
0.00110409
0.00112255
0.001141
0.00115945
0.00117787
0.00119627
0.00121463
0.00123295
0.0012512
0.0012694
0.00128752
0.00130555
0.00132349
0.00134134
0.00135906
0.00137667
0.00139415
0.00141149
0.00142868
0.00144571
0.00146257
0.00147926