/*--------------------------------*- C++ -*----------------------------------*\
  =========                 |
  \\      /  F ield         | OpenFOAM: The Open Source CFD Toolbox
   \\    /   O peration     | Website:  https://openfoam.org
    \\  /    A nd           | Version:  dev
     \\/     M anipulation  |
\*---------------------------------------------------------------------------*/
FoamFile
{
    format      ascii;
    class       volScalarField;
    location    "0.06";
    object      beta;
}
// * * * * * * * * * * * * * * * * * * * * * * * * * * * * * * * * * * * * * //

dimensions      [0 0 0 0 0 0 0];

internalField   uniform 0;

boundaryField
{
    frontAndBack
    {
        type            empty;
    }
    inlet
    {
        type            calculated;
        value           uniform 0;
    }
    outlet
    {
        type            calculated;
        value           uniform 0;
    }
    substrate
    {
        type            calculated;
        value           nonuniform List<scalar> 
400
(
0.00643475
0.00662995
0.00678641
0.00692896
0.00706199
0.00718665
0.00730427
0.00741591
0.00752236
0.00762419
0.00772186
0.00781571
0.00790604
0.00799307
0.008077
0.00815798
0.00823613
0.00831156
0.00838437
0.00845463
0.00852242
0.0085878
0.00865083
0.00871157
0.00877007
0.00882639
0.00888058
0.0089327
0.0089828
0.00903093
0.00907715
0.00912151
0.00916405
0.00920484
0.00924393
0.00928137
0.00931721
0.00935151
0.00938431
0.00941567
0.00944564
0.00947426
0.00950159
0.00952767
0.00955255
0.00957627
0.00959888
0.00962042
0.00964093
0.00966046
0.00967905
0.00969673
0.00971354
0.00972951
0.00974469
0.00975911
0.0097728
0.00978578
0.0097981
0.00980979
0.00982086
0.00983136
0.00984129
0.0098507
0.00985961
0.00986804
0.009876
0.00988354
0.00989065
0.00989738
0.00990372
0.00990972
0.00991537
0.0099207
0.00992572
0.00993046
0.00993492
0.00993912
0.00994307
0.00994678
0.00995028
0.00995357
0.00995665
0.00995955
0.00996227
0.00996483
0.00996722
0.00996947
0.00997157
0.00997354
0.00997539
0.00997712
0.00997873
0.00998024
0.00998165
0.00998297
0.0099842
0.00998535
0.00998642
0.00998742
0.00998835
0.00998922
0.00999003
0.00999078
0.00999148
0.00999213
0.00999273
0.00999329
0.00999382
0.0099943
0.00999475
0.00999516
0.00999555
0.0099959
0.00999623
0.00999654
0.00999682
0.00999708
0.00999732
0.00999754
0.00999775
0.00999793
0.00999811
0.00999827
0.00999842
0.00999855
0.00999868
0.00999879
0.0099989
0.00999899
0.00999908
0.00999916
0.00999924
0.00999931
0.00999937
0.00999943
0.00999948
0.00999953
0.00999957
0.00999961
0.00999965
0.00999968
0.00999971
0.00999974
0.00999976
0.00999979
0.00999981
0.00999982
0.00999984
0.00999986
0.00999987
0.00999988
0.0099999
0.00999991
0.00999992
0.00999992
0.00999993
0.00999994
0.00999994
0.00999995
0.00999996
0.00999996
0.00999996
0.00999997
0.00999997
0.00999997
0.00999998
0.00999998
0.00999998
0.00999998
0.00999999
0.00999999
0.00999999
0.00999999
0.00999999
0.00999999
0.00999999
0.00999999
0.00999999
0.01
0.01
0.01
0.01
0.01
0.01
0.01
0.01
0.01
0.01
0.01
0.01
0.01
0.01
0.01
0.01
0.01
0.01
0.01
0.01
0.01
0.01
0.01
0.01
0.01
0.01
0.01
0.01
0.01
0.01
0.01
0.01
0.01
0.01
0.01
0.01
0.01
0.01
0.01
0.01
0.01
0.01
0.01
0.01
0.01
0.01
0.01
0.01
0.01
0.01
0.01
0.01
0.01
0.01
0.01
0.01
0.01
0.01
0.01
0.01
0.01
0.01
0.01
0.01
0.01
0.01
0.01
0.01
0.01
0.01
0.01
0.01
0.01
0.01
0.01
0.01
0.01
0.01
0.01
0.01
0.01
0.01
0.01
0.01
0.01
0.01
0.01
0.01
0.01
0.01
0.01
0.01
0.01
0.01
0.01
0.01
0.01
0.01
0.01
0.01
0.01
0.01
0.01
0.01
0.01
0.01
0.01
0.01
0.01
0.01
0.01
0.01
0.01
0.01
0.01
0.01
0.01
0.01
0.01
0.01
0.01
0.01
0.01
0.01
0.01
0.01
0.01
0.01
0.01
0.01
0.01
0.01
0.01
0.01
0.01
0.01
0.01
0.01
0.01
0.01
0.01
0.01
0.01
0.01
0.01
0.01
0.01
0.01
0.01
0.01
0.01
0.01
0.01
0.01
0.01
0.01
0.01
0.01
0.01
0.01
0.01
0.01
0.01
0.01
0.01
0.01
0.01
0.01
0.01
0.01
0.01
0.01
0.01
0.01
0.01
0.01
0.01
0.01
0.01
0.01
0.01
0.01
0.01
0.01
0.01
0.01
0.01
0.01
0.01
0.01
0.01
0.01
0.01
0.01
0.01
0.01
0.01
0.01
0.01
0.01
0.01
0.01
0.01
0.01
0.01
0.01
0.01
0.01
0.01
0.01
0.01
0.01
0.01
0.01
0.01
0.01
0.01
0.01
0.01
0.01
0.01
)
;
    }
    Wall
    {
        type            calculated;
        value           nonuniform List<scalar> 
400
(
0.00643474
0.00662994
0.00678641
0.00692896
0.00706198
0.00718664
0.00730425
0.00741589
0.00752233
0.00762416
0.00772182
0.00781567
0.00790599
0.00799302
0.00807695
0.00815792
0.00823607
0.0083115
0.0083843
0.00845456
0.00852235
0.00858773
0.00865076
0.0087115
0.00877
0.00882632
0.00888052
0.00893264
0.00898274
0.00903087
0.00907709
0.00912144
0.00916399
0.00920478
0.00924387
0.00928131
0.00931715
0.00935145
0.00938426
0.00941562
0.00944559
0.00947421
0.00950154
0.00952762
0.0095525
0.00957623
0.00959884
0.00962038
0.0096409
0.00966043
0.00967901
0.00969669
0.0097135
0.00972948
0.00974466
0.00975908
0.00977277
0.00978576
0.00979808
0.00980976
0.00982084
0.00983133
0.00984127
0.00985068
0.00985959
0.00986802
0.00987599
0.00988352
0.00989064
0.00989736
0.00990371
0.0099097
0.00991535
0.00992068
0.00992571
0.00993044
0.0099349
0.0099391
0.00994306
0.00994677
0.00995027
0.00995356
0.00995664
0.00995954
0.00996227
0.00996482
0.00996722
0.00996946
0.00997157
0.00997354
0.00997538
0.00997711
0.00997873
0.00998024
0.00998165
0.00998297
0.0099842
0.00998535
0.00998642
0.00998742
0.00998835
0.00998922
0.00999003
0.00999078
0.00999148
0.00999213
0.00999273
0.00999329
0.00999381
0.0099943
0.00999474
0.00999516
0.00999554
0.0099959
0.00999623
0.00999654
0.00999682
0.00999708
0.00999732
0.00999754
0.00999775
0.00999793
0.00999811
0.00999827
0.00999842
0.00999855
0.00999868
0.00999879
0.0099989
0.00999899
0.00999908
0.00999916
0.00999924
0.00999931
0.00999937
0.00999943
0.00999948
0.00999953
0.00999957
0.00999961
0.00999965
0.00999968
0.00999971
0.00999974
0.00999976
0.00999978
0.00999981
0.00999982
0.00999984
0.00999986
0.00999987
0.00999988
0.0099999
0.00999991
0.00999992
0.00999992
0.00999993
0.00999994
0.00999994
0.00999995
0.00999996
0.00999996
0.00999996
0.00999997
0.00999997
0.00999997
0.00999998
0.00999998
0.00999998
0.00999998
0.00999999
0.00999999
0.00999999
0.00999999
0.00999999
0.00999999
0.00999999
0.00999999
0.00999999
0.01
0.01
0.01
0.01
0.01
0.01
0.01
0.01
0.01
0.01
0.01
0.01
0.01
0.01
0.01
0.01
0.01
0.01
0.01
0.01
0.01
0.01
0.01
0.01
0.01
0.01
0.01
0.01
0.01
0.01
0.01
0.01
0.01
0.01
0.01
0.01
0.01
0.01
0.01
0.01
0.01
0.01
0.01
0.01
0.01
0.01
0.01
0.01
0.01
0.01
0.01
0.01
0.01
0.01
0.01
0.01
0.01
0.01
0.01
0.01
0.01
0.01
0.01
0.01
0.01
0.01
0.01
0.01
0.01
0.01
0.01
0.01
0.01
0.01
0.01
0.01
0.01
0.01
0.01
0.01
0.01
0.01
0.01
0.01
0.01
0.01
0.01
0.01
0.01
0.01
0.01
0.01
0.01
0.01
0.01
0.01
0.01
0.01
0.01
0.01
0.01
0.01
0.01
0.01
0.01
0.01
0.01
0.01
0.01
0.01
0.01
0.01
0.01
0.01
0.01
0.01
0.01
0.01
0.01
0.01
0.01
0.01
0.01
0.01
0.01
0.01
0.01
0.01
0.01
0.01
0.01
0.01
0.01
0.01
0.01
0.01
0.01
0.01
0.01
0.01
0.01
0.01
0.01
0.01
0.01
0.01
0.01
0.01
0.01
0.01
0.01
0.01
0.01
0.01
0.01
0.01
0.01
0.01
0.01
0.01
0.01
0.01
0.01
0.01
0.01
0.01
0.01
0.01
0.01
0.01
0.01
0.01
0.01
0.01
0.01
0.01
0.01
0.01
0.01
0.01
0.01
0.01
0.01
0.01
0.01
0.01
0.01
0.01
0.01
0.01
0.01
0.01
0.01
0.01
0.01
0.01
0.01
0.01
0.01
0.01
0.01
0.01
0.01
0.01
0.01
0.01
0.01
0.01
0.01
0.01
0.01
0.01
0.01
0.01
0.01
0.01
0.01
0.01
0.01
0.01
0.01
)
;
    }
}


// ************************************************************************* //
