/*--------------------------------*- C++ -*----------------------------------*\
  =========                 |
  \\      /  F ield         | OpenFOAM: The Open Source CFD Toolbox
   \\    /   O peration     | Website:  https://openfoam.org
    \\  /    A nd           | Version:  dev
     \\/     M anipulation  |
\*---------------------------------------------------------------------------*/
FoamFile
{
    format      ascii;
    class       volScalarField;
    location    "0.06";
    object      Exp1;
}
// * * * * * * * * * * * * * * * * * * * * * * * * * * * * * * * * * * * * * //

dimensions      [0 0 0 0 0 0 0];

internalField   uniform 0;

boundaryField
{
    frontAndBack
    {
        type            empty;
    }
    inlet
    {
        type            calculated;
        value           uniform 0;
    }
    outlet
    {
        type            calculated;
        value           uniform 0;
    }
    substrate
    {
        type            calculated;
        value           nonuniform List<scalar> 
400
(
0.12783
0.121895
0.117485
0.113512
0.109803
0.10632
0.103016
0.099852
0.0968013
0.0938452
0.0909701
0.088166
0.0854255
0.0827435
0.0801161
0.0775409
0.0750164
0.0725415
0.070116
0.0677399
0.0654133
0.0631368
0.0609109
0.058736
0.0566127
0.0545414
0.0525226
0.0505565
0.0486433
0.0467832
0.0449759
0.0432215
0.0415195
0.0398696
0.0382713
0.036724
0.035227
0.0337796
0.0323808
0.0310298
0.0297257
0.0284674
0.0272539
0.0260841
0.0249568
0.0238711
0.0228258
0.0218197
0.0208517
0.0199208
0.0190257
0.0181654
0.0173387
0.0165447
0.0157822
0.0150503
0.0143478
0.0136739
0.0130275
0.0124078
0.0118137
0.0112444
0.010699
0.0101766
0.00967655
0.00919789
0.0087399
0.00830181
0.0078829
0.00748244
0.00709976
0.00673418
0.00638506
0.00605176
0.00573369
0.00543025
0.00514087
0.004865
0.00460211
0.00435167
0.00411319
0.00388619
0.00367019
0.00346474
0.00326942
0.00308378
0.00290743
0.00273997
0.00258102
0.00243021
0.00228718
0.0021516
0.00202313
0.00190146
0.00178627
0.00167728
0.00157419
0.00147674
0.00138465
0.00129768
0.00121558
0.00113811
0.00106505
0.00099619
0.000931311
0.000870217
0.000812718
0.000758629
0.000707774
0.000659986
0.000615104
0.000572972
0.000533445
0.00049638
0.000461643
0.000429107
0.000398648
0.000370149
0.0003435
0.000318595
0.000295332
0.000273616
0.000253355
0.000234463
0.000216858
0.000200461
0.000185199
0.000171001
0.000157801
0.000145536
0.000134147
0.000123578
0.000113775
0.000104688
9.62709e-05
8.84781e-05
8.12681e-05
7.46014e-05
6.84408e-05
6.27515e-05
5.75007e-05
5.26575e-05
4.81933e-05
4.40808e-05
4.02949e-05
3.68116e-05
3.3609e-05
3.06663e-05
2.7964e-05
2.54842e-05
2.321e-05
2.11257e-05
1.92166e-05
1.74693e-05
1.58709e-05
1.44097e-05
1.30749e-05
1.18564e-05
1.07446e-05
9.73097e-06
8.80741e-06
7.96646e-06
7.20125e-06
6.50542e-06
5.87309e-06
5.29884e-06
4.7777e-06
4.30507e-06
3.8767e-06
3.48873e-06
3.13757e-06
2.81994e-06
2.53284e-06
2.2735e-06
2.0394e-06
1.82822e-06
1.63785e-06
1.46635e-06
1.31196e-06
1.17307e-06
1.04819e-06
9.36001e-07
8.35274e-07
7.44901e-07
6.63872e-07
5.9127e-07
5.26264e-07
4.68099e-07
4.16089e-07
3.69616e-07
3.28118e-07
2.91087e-07
2.58066e-07
2.28641e-07
2.02437e-07
1.79118e-07
1.58381e-07
1.39953e-07
1.23587e-07
1.09062e-07
9.61816e-08
8.47659e-08
7.46558e-08
6.5708e-08
5.77943e-08
5.08001e-08
4.46227e-08
3.91705e-08
3.43617e-08
3.01233e-08
2.63901e-08
2.31042e-08
2.02141e-08
1.76737e-08
1.54423e-08
1.34837e-08
1.17657e-08
1.02597e-08
8.94057e-09
7.78586e-09
6.77577e-09
5.89281e-09
5.12149e-09
4.44817e-09
3.86081e-09
3.34877e-09
2.90271e-09
2.51439e-09
2.17657e-09
1.88289e-09
1.62774e-09
1.40624e-09
1.21407e-09
1.04746e-09
9.03116e-10
7.78145e-10
6.70022e-10
5.76538e-10
4.95768e-10
4.2603e-10
3.65859e-10
3.13977e-10
2.69273e-10
2.30781e-10
1.9766e-10
1.6918e-10
1.44707e-10
1.23693e-10
1.0566e-10
9.01958e-11
7.69441e-11
6.55959e-11
5.58843e-11
4.7579e-11
4.04812e-11
3.44194e-11
2.9246e-11
2.48337e-11
2.10732e-11
1.78702e-11
1.51441e-11
1.28254e-11
1.08545e-11
9.18048e-12
7.75947e-12
6.5541e-12
5.53232e-12
4.66676e-12
3.93403e-12
3.31416e-12
2.79013e-12
2.34741e-12
1.97364e-12
1.6583e-12
1.39242e-12
1.16841e-12
9.79794e-13
8.21087e-13
6.87637e-13
5.75499e-13
4.81334e-13
4.02313e-13
3.36045e-13
2.80509e-13
2.33999e-13
1.95072e-13
1.62516e-13
1.35305e-13
1.12576e-13
9.36047e-14
7.77797e-14
6.45881e-14
5.35991e-14
4.44508e-14
3.68401e-14
3.05126e-14
2.52556e-14
2.08908e-14
1.72691e-14
1.42661e-14
1.17777e-14
9.71705e-15
8.01177e-15
6.6015e-15
5.43597e-15
4.47334e-15
3.67881e-15
3.02346e-15
2.48326e-15
2.03827e-15
1.67195e-15
1.37058e-15
1.12282e-15
9.19254e-16
7.52115e-16
6.14973e-16
5.02517e-16
4.10363e-16
3.34895e-16
2.73133e-16
2.22619e-16
1.81332e-16
1.47608e-16
1.2008e-16
9.76241e-17
7.93172e-17
6.44025e-17
5.22594e-17
4.2379e-17
3.4345e-17
2.78165e-17
2.25147e-17
1.8212e-17
1.47223e-17
1.18938e-17
9.60274e-18
7.7481e-18
6.24775e-18
5.03477e-18
4.05475e-18
3.26345e-18
2.62494e-18
2.11003e-18
1.69508e-18
1.36088e-18
1.09189e-18
8.75524e-19
7.01597e-19
5.61873e-19
4.49696e-19
3.59692e-19
2.87524e-19
2.29694e-19
1.83382e-19
1.46317e-19
1.16672e-19
9.29758e-20
7.40469e-20
5.89354e-20
4.68791e-20
3.72663e-20
2.96065e-20
2.35067e-20
1.86523e-20
1.47913e-20
1.17223e-20
9.28449e-21
7.34916e-21
5.81371e-21
4.59626e-21
3.63155e-21
2.86759e-21
2.26296e-21
1.78474e-21
1.40673e-21
1.10812e-21
8.72361e-22
6.8635e-22
5.39677e-22
4.24093e-22
3.33064e-22
2.61418e-22
2.05061e-22
1.60759e-22
1.25955e-22
9.86301e-23
7.71911e-23
6.03822e-23
4.72141e-23
3.69079e-23
2.88515e-23
2.25649e-23
1.76721e-23
1.38806e-23
1.09638e-23
8.74873e-24
7.10587e-24
5.94187e-24
5.19414e-24
4.82675e-24
)
;
    }
    Wall
    {
        type            calculated;
        value           nonuniform List<scalar> 
400
(
0.12783
0.121896
0.117485
0.113513
0.109803
0.10632
0.103016
0.0998522
0.0968014
0.0938454
0.0909704
0.0881664
0.085426
0.0827441
0.0801168
0.0775418
0.0750173
0.0725425
0.0701171
0.0677411
0.0654147
0.0631383
0.0609124
0.0587375
0.0566143
0.0545431
0.0525243
0.0505583
0.0486452
0.046785
0.0449778
0.0432233
0.0415214
0.0398715
0.0382732
0.0367259
0.0352289
0.0337814
0.0323826
0.0310316
0.0297275
0.0284691
0.0272556
0.0260857
0.0249585
0.0238727
0.0228273
0.0218212
0.0208532
0.0199222
0.0190271
0.0181667
0.01734
0.016546
0.0157835
0.0150515
0.014349
0.013675
0.0130286
0.0124088
0.0118147
0.0112453
0.0106999
0.0101776
0.00967743
0.00919875
0.00874073
0.00830261
0.00788367
0.00748319
0.00710048
0.00673487
0.00638572
0.00605241
0.00573431
0.00543084
0.00514144
0.00486555
0.00460263
0.00435218
0.00411368
0.00388666
0.00367064
0.00346518
0.00326983
0.00308418
0.00290781
0.00274033
0.00258137
0.00243054
0.0022875
0.00215191
0.00202343
0.00190174
0.00178654
0.00167753
0.00157444
0.00147697
0.00138487
0.00129789
0.00121578
0.0011383
0.00106524
0.000996363
0.000931476
0.000870374
0.000812867
0.00075877
0.000707909
0.000660114
0.000615225
0.000573087
0.000533553
0.000496482
0.00046174
0.000429199
0.000398734
0.000370231
0.000343578
0.000318668
0.000295401
0.000273681
0.000253416
0.000234521
0.000216912
0.000200512
0.000185247
0.000171046
0.000157843
0.000145576
0.000134184
0.000123613
0.000113807
0.000104719
9.62993e-05
8.85047e-05
8.12929e-05
7.46245e-05
6.84624e-05
6.27716e-05
5.75194e-05
5.2675e-05
4.82095e-05
4.40959e-05
4.03088e-05
3.68246e-05
3.36211e-05
3.06775e-05
2.79744e-05
2.54938e-05
2.32189e-05
2.11339e-05
1.92242e-05
1.74762e-05
1.58773e-05
1.44157e-05
1.30804e-05
1.18614e-05
1.07493e-05
9.73525e-06
8.81134e-06
7.97007e-06
7.20456e-06
6.50846e-06
5.87587e-06
5.3014e-06
4.78004e-06
4.3072e-06
3.87866e-06
3.49051e-06
3.1392e-06
2.82143e-06
2.53419e-06
2.27473e-06
2.04052e-06
1.82924e-06
1.63878e-06
1.4672e-06
1.31273e-06
1.17376e-06
1.04882e-06
9.36571e-07
8.3579e-07
7.45367e-07
6.64294e-07
5.91652e-07
5.26608e-07
4.68409e-07
4.16369e-07
3.69868e-07
3.28344e-07
2.91291e-07
2.5825e-07
2.28805e-07
2.02585e-07
1.79251e-07
1.585e-07
1.40059e-07
1.23682e-07
1.09148e-07
9.62579e-08
8.48341e-08
7.47166e-08
6.57622e-08
5.78427e-08
5.08432e-08
4.46611e-08
3.92046e-08
3.4392e-08
3.01502e-08
2.6414e-08
2.31254e-08
2.02329e-08
1.76903e-08
1.54571e-08
1.34967e-08
1.17772e-08
1.02699e-08
8.94955e-09
7.79378e-09
6.78275e-09
5.89895e-09
5.1269e-09
4.45293e-09
3.86499e-09
3.35244e-09
2.90593e-09
2.51722e-09
2.17905e-09
1.88506e-09
1.62964e-09
1.4079e-09
1.21552e-09
1.04873e-09
9.04223e-10
7.7911e-10
6.70863e-10
5.77271e-10
4.96405e-10
4.26584e-10
3.6634e-10
3.14395e-10
2.69636e-10
2.31096e-10
1.97933e-10
1.69416e-10
1.44912e-10
1.23869e-10
1.05812e-10
9.03278e-11
7.7058e-11
6.56941e-11
5.59689e-11
4.76519e-11
4.05439e-11
3.44733e-11
2.92923e-11
2.48735e-11
2.11073e-11
1.78995e-11
1.51692e-11
1.28469e-11
1.08729e-11
9.19621e-12
7.77292e-12
6.56558e-12
5.54212e-12
4.67512e-12
3.94115e-12
3.32023e-12
2.79529e-12
2.3518e-12
1.97738e-12
1.66147e-12
1.39512e-12
1.17069e-12
9.81728e-13
8.22726e-13
6.89024e-13
5.76672e-13
4.82325e-13
4.0315e-13
3.36752e-13
2.81105e-13
2.34501e-13
1.95496e-13
1.62872e-13
1.35604e-13
1.12828e-13
9.38164e-14
7.79574e-14
6.47372e-14
5.37241e-14
4.45555e-14
3.69278e-14
3.0586e-14
2.53169e-14
2.0942e-14
1.73119e-14
1.43018e-14
1.18075e-14
9.74186e-15
8.03243e-15
6.6187e-15
5.45027e-15
4.48523e-15
3.68869e-15
3.03165e-15
2.49005e-15
2.0439e-15
1.67661e-15
1.37444e-15
1.12601e-15
9.21893e-16
7.54296e-16
6.16773e-16
5.04002e-16
4.11587e-16
3.35904e-16
2.73963e-16
2.23302e-16
1.81894e-16
1.4807e-16
1.20459e-16
9.79352e-17
7.95724e-17
6.46117e-17
5.24306e-17
4.25192e-17
3.44596e-17
2.79102e-17
2.25913e-17
1.82745e-17
1.47733e-17
1.19354e-17
9.6366e-18
7.77568e-18
6.27018e-18
5.05301e-18
4.06957e-18
3.27549e-18
2.63471e-18
2.11796e-18
1.7015e-18
1.36608e-18
1.0961e-18
8.7893e-19
7.0435e-19
5.64097e-19
4.51492e-19
3.61141e-19
2.88693e-19
2.30635e-19
1.8414e-19
1.46927e-19
1.17163e-19
9.33703e-20
7.43637e-20
5.91898e-20
4.70832e-20
3.74299e-20
2.97376e-20
2.36117e-20
1.87362e-20
1.48584e-20
1.1776e-20
9.32737e-21
7.38339e-21
5.84101e-21
4.61802e-21
3.64889e-21
2.88139e-21
2.27395e-21
1.79348e-21
1.41367e-21
1.11363e-21
8.76735e-22
6.8982e-22
5.42427e-22
4.26272e-22
3.34789e-22
2.62783e-22
2.06141e-22
1.61612e-22
1.26629e-22
9.91619e-23
7.76106e-23
6.0713e-23
4.74748e-23
3.71133e-23
2.90133e-23
2.26924e-23
1.77727e-23
1.39601e-23
1.10271e-23
8.79958e-24
7.14738e-24
5.97636e-24
5.22298e-24
4.85259e-24
)
;
    }
}


// ************************************************************************* //
