/*--------------------------------*- C++ -*----------------------------------*\
  =========                 |
  \\      /  F ield         | OpenFOAM: The Open Source CFD Toolbox
   \\    /   O peration     | Website:  https://openfoam.org
    \\  /    A nd           | Version:  dev
     \\/     M anipulation  |
\*---------------------------------------------------------------------------*/
FoamFile
{
    format      ascii;
    class       volScalarField;
    location    "0.06";
    object      growth;
}
// * * * * * * * * * * * * * * * * * * * * * * * * * * * * * * * * * * * * * //

dimensions      [0 0 0 0 0 0 0];

internalField   uniform 0;

boundaryField
{
    frontAndBack
    {
        type            empty;
    }
    inlet
    {
        type            calculated;
        value           uniform 0;
    }
    outlet
    {
        type            calculated;
        value           uniform 0;
    }
    substrate
    {
        type            calculated;
        value           nonuniform List<scalar> 
400
(
0.356525
0.337005
0.321359
0.307104
0.293801
0.281335
0.269573
0.258409
0.247764
0.237581
0.227814
0.218429
0.209396
0.200693
0.1923
0.184202
0.176387
0.168844
0.161563
0.154537
0.147758
0.14122
0.134917
0.128843
0.122993
0.117361
0.111942
0.10673
0.10172
0.0969065
0.0922849
0.0878495
0.0835949
0.0795158
0.0756069
0.071863
0.0682788
0.0648492
0.0615689
0.0584329
0.0554362
0.0525739
0.0498412
0.0472332
0.0447454
0.0423732
0.0401122
0.0379581
0.0359065
0.0339535
0.032095
0.0303272
0.0286463
0.0270487
0.0255307
0.0240891
0.0227205
0.0214217
0.0201896
0.0190212
0.0179138
0.0168644
0.0158705
0.0149295
0.0140389
0.0131964
0.0123996
0.0116464
0.0109346
0.0102624
0.00962759
0.00902849
0.00846328
0.00793026
0.00742779
0.00695432
0.00650836
0.00608848
0.00569332
0.00532158
0.00497202
0.00464345
0.00433475
0.00404483
0.00377268
0.00351731
0.00327779
0.00305324
0.00284281
0.00264571
0.00246117
0.00228847
0.00212693
0.00197588
0.00183472
0.00170286
0.00157975
0.00146485
0.00135767
0.00125773
0.0011646
0.00107786
0.00099709
0.000921931
0.000852024
0.000787034
0.000726644
0.000670557
0.000618493
0.000570188
0.000525392
0.000483872
0.000445408
0.000409794
0.000376835
0.000346349
0.000318165
0.000292124
0.000268075
0.000245877
0.0002254
0.000206519
0.00018912
0.000173094
0.000158342
0.00014477
0.000132291
0.000120821
0.000110287
0.000100616
9.17434e-05
8.36074e-05
7.6151e-05
6.93214e-05
6.30694e-05
5.73495e-05
5.21193e-05
4.73396e-05
4.29742e-05
3.89894e-05
3.53542e-05
3.20397e-05
2.90196e-05
2.62691e-05
2.37658e-05
2.14888e-05
1.94187e-05
1.7538e-05
1.58303e-05
1.42806e-05
1.28752e-05
1.16013e-05
1.04474e-05
9.40275e-06
8.45761e-06
7.60301e-06
6.83074e-06
6.13329e-06
5.50381e-06
4.936e-06
4.42415e-06
3.96302e-06
3.54784e-06
3.17426e-06
2.83832e-06
2.53641e-06
2.26525e-06
2.02187e-06
1.80355e-06
1.60783e-06
1.43248e-06
1.27549e-06
1.13501e-06
1.00939e-06
8.97125e-07
7.96862e-07
7.07372e-07
6.27548e-07
5.56392e-07
4.93001e-07
4.36565e-07
3.86351e-07
3.41703e-07
3.02028e-07
2.66795e-07
2.35526e-07
2.07794e-07
1.83214e-07
1.61441e-07
1.42167e-07
1.25117e-07
1.10042e-07
9.67243e-08
8.49651e-08
7.45889e-08
6.5439e-08
5.73757e-08
5.02745e-08
4.40246e-08
3.85275e-08
3.36957e-08
2.94513e-08
2.57254e-08
2.24568e-08
1.95911e-08
1.70804e-08
1.4882e-08
1.29585e-08
1.12764e-08
9.80652e-09
8.52284e-09
7.40251e-09
6.42539e-09
5.57373e-09
4.83189e-09
4.18613e-09
3.62439e-09
3.13603e-09
2.71176e-09
2.34341e-09
2.0238e-09
1.74668e-09
1.50654e-09
1.2986e-09
1.11865e-09
9.63018e-10
8.28514e-10
7.12344e-10
6.12073e-10
5.25583e-10
4.51027e-10
3.86801e-10
3.3151e-10
2.83941e-10
2.43044e-10
2.07905e-10
1.77733e-10
1.51843e-10
1.29642e-10
1.10616e-10
9.43228e-11
8.0378e-11
6.84513e-11
5.82572e-11
4.95497e-11
4.21168e-11
3.57762e-11
3.03708e-11
2.57656e-11
2.18449e-11
1.8509e-11
1.56725e-11
1.32623e-11
1.12156e-11
9.47869e-12
8.0057e-12
6.75731e-12
5.69997e-12
4.80501e-12
4.048e-12
3.40809e-12
2.86751e-12
2.41115e-12
2.02613e-12
1.7015e-12
1.42799e-12
1.19768e-12
1.00388e-12
8.40901e-13
7.03937e-13
5.88909e-13
4.92365e-13
4.11387e-13
3.4351e-13
2.86651e-13
2.39052e-13
1.99231e-13
1.65938e-13
1.38122e-13
1.14895e-13
9.55145e-14
7.93527e-14
6.58841e-14
5.4667e-14
4.53311e-14
3.75658e-14
3.11112e-14
2.57494e-14
2.12982e-14
1.76054e-14
1.45438e-14
1.2007e-14
9.9065e-15
8.16832e-15
6.73089e-15
5.54294e-15
4.56179e-15
3.75196e-15
3.08397e-15
2.53332e-15
2.07969e-15
1.70622e-15
1.39894e-15
1.14629e-15
9.38681e-16
7.68193e-16
6.28279e-16
5.13528e-16
4.19474e-16
3.42434e-16
2.79369e-16
2.27777e-16
1.85597e-16
1.51134e-16
1.22995e-16
1.00032e-16
8.13066e-17
6.60453e-17
5.36155e-17
4.3498e-17
3.5268e-17
2.85775e-17
2.3142e-17
1.87287e-17
1.51478e-17
1.2244e-17
9.89076e-18
7.9849e-18
6.44232e-18
5.19456e-18
4.18591e-18
3.37104e-18
2.71314e-18
2.18231e-18
1.75426e-18
1.40931e-18
1.1315e-18
9.07895e-19
7.28038e-19
5.83455e-19
4.67301e-19
3.74044e-19
2.99216e-19
2.39212e-19
1.91125e-19
1.52612e-19
1.21786e-19
9.71282e-20
7.74157e-20
6.16667e-20
4.9092e-20
3.90579e-20
3.1056e-20
2.46786e-20
1.9599e-20
1.55556e-20
1.2339e-20
9.78165e-21
7.74968e-21
6.13615e-21
4.85566e-21
3.84008e-21
3.03511e-21
2.39744e-21
1.89262e-21
1.49321e-21
1.17739e-21
9.27812e-22
7.30706e-22
5.75132e-22
4.52413e-22
3.55669e-22
2.79447e-22
2.1943e-22
1.72201e-22
1.35058e-22
1.05864e-22
8.29319e-23
6.49291e-23
5.08044e-23
3.97292e-23
3.10502e-23
2.4253e-23
1.89329e-23
1.47713e-23
1.15181e-23
8.97659e-24
6.99244e-24
5.44461e-24
4.23826e-24
3.29916e-24
2.56933e-24
2.00358e-24
1.56683e-24
1.23206e-24
9.78678e-25
7.913e-25
6.58863e-25
5.73945e-25
5.3227e-25
)
;
    }
    Wall
    {
        type            calculated;
        value           nonuniform List<scalar> 
400
(
0.356526
0.337006
0.321359
0.307104
0.293802
0.281336
0.269575
0.258411
0.247767
0.237584
0.227818
0.218433
0.209401
0.200698
0.192305
0.184208
0.176393
0.16885
0.16157
0.154544
0.147765
0.141227
0.134924
0.12885
0.123
0.117368
0.111948
0.106736
0.101726
0.0969132
0.0922915
0.0878559
0.0836012
0.0795219
0.0756129
0.0718689
0.0682845
0.0648547
0.0615743
0.0584381
0.0554413
0.0525788
0.0498459
0.0472378
0.0447498
0.0423775
0.0401163
0.037962
0.0359103
0.0339572
0.0320986
0.0303306
0.0286496
0.0270518
0.0255338
0.024092
0.0227233
0.0214244
0.0201922
0.0190237
0.0179162
0.0168667
0.0158727
0.0149316
0.0140409
0.0131983
0.0124014
0.0116481
0.0109363
0.010264
0.00962914
0.00902997
0.00846469
0.00793161
0.00742908
0.00695555
0.00650953
0.00608959
0.00569438
0.00532259
0.00497298
0.00464436
0.00433561
0.00404565
0.00377346
0.00351805
0.00327849
0.0030539
0.00284344
0.0026463
0.00246173
0.002289
0.00212743
0.00197636
0.00183517
0.00170329
0.00158015
0.00146522
0.00135802
0.00125807
0.00116492
0.00107815
0.00099737
0.000922194
0.000852271
0.000787265
0.000726861
0.000670761
0.000618685
0.000570367
0.00052556
0.000484029
0.000445555
0.000409931
0.000376962
0.000346468
0.000318277
0.000292228
0.000268172
0.000245968
0.000225484
0.000206597
0.000189192
0.000173162
0.000158405
0.000144828
0.000132344
0.000120871
0.000110333
0.000100659
9.17829e-05
8.36439e-05
7.61847e-05
6.93525e-05
6.30981e-05
5.7376e-05
5.21437e-05
4.73621e-05
4.29948e-05
3.90084e-05
3.53716e-05
3.20558e-05
2.90343e-05
2.62826e-05
2.37782e-05
2.15001e-05
1.94291e-05
1.75475e-05
1.5839e-05
1.42886e-05
1.28824e-05
1.16079e-05
1.04534e-05
9.40825e-06
8.46262e-06
7.60757e-06
6.83488e-06
6.13706e-06
5.50723e-06
4.93912e-06
4.42698e-06
3.96558e-06
3.55016e-06
3.17636e-06
2.84022e-06
2.53813e-06
2.26681e-06
2.02327e-06
1.80481e-06
1.60897e-06
1.43351e-06
1.27642e-06
1.13584e-06
1.01014e-06
8.97802e-07
7.9747e-07
7.07919e-07
6.28039e-07
5.56832e-07
4.93396e-07
4.36918e-07
3.86668e-07
3.41986e-07
3.02281e-07
2.67021e-07
2.35728e-07
2.07974e-07
1.83374e-07
1.61584e-07
1.42295e-07
1.2523e-07
1.10144e-07
9.68142e-08
8.50449e-08
7.46598e-08
6.55019e-08
5.74314e-08
5.03239e-08
4.40683e-08
3.85662e-08
3.37299e-08
2.94816e-08
2.57521e-08
2.24804e-08
1.96119e-08
1.70987e-08
1.48982e-08
1.29727e-08
1.12889e-08
9.81753e-09
8.53251e-09
7.41101e-09
6.43285e-09
5.58026e-09
4.83761e-09
4.19115e-09
3.62878e-09
3.13987e-09
2.71512e-09
2.34634e-09
2.02636e-09
1.74891e-09
1.50849e-09
1.30029e-09
1.12012e-09
9.64302e-10
8.29631e-10
7.13315e-10
6.12916e-10
5.26314e-10
4.51661e-10
3.87351e-10
3.31986e-10
2.84354e-10
2.43401e-10
2.08213e-10
1.77999e-10
1.52073e-10
1.2984e-10
1.10787e-10
9.44701e-11
8.05049e-11
6.85605e-11
5.83511e-11
4.96303e-11
4.21861e-11
3.58356e-11
3.04217e-11
2.58093e-11
2.18823e-11
1.8541e-11
1.56999e-11
1.32857e-11
1.12356e-11
9.49578e-12
8.02028e-12
6.76974e-12
5.71056e-12
4.81403e-12
4.05568e-12
3.41462e-12
2.87306e-12
2.41586e-12
2.03012e-12
1.7049e-12
1.43086e-12
1.20011e-12
1.00594e-12
8.42644e-13
7.05411e-13
5.90154e-13
4.93416e-13
4.12274e-13
3.44258e-13
2.87281e-13
2.39583e-13
1.99678e-13
1.66314e-13
1.38437e-13
1.15161e-13
9.57371e-14
7.95394e-14
6.60405e-14
5.47981e-14
4.54408e-14
3.76576e-14
3.11879e-14
2.58135e-14
2.13518e-14
1.76501e-14
1.45811e-14
1.20381e-14
9.93237e-15
8.18985e-15
6.7488e-15
5.55782e-15
4.57416e-15
3.76223e-15
3.09249e-15
2.54038e-15
2.08554e-15
1.71106e-15
1.40295e-15
1.14961e-15
9.4142e-16
7.70456e-16
6.30146e-16
5.15068e-16
4.20744e-16
3.4348e-16
2.8023e-16
2.28485e-16
1.86179e-16
1.51613e-16
1.23388e-16
1.00355e-16
8.15711e-17
6.62621e-17
5.3793e-17
4.36434e-17
3.53869e-17
2.86747e-17
2.32214e-17
1.87936e-17
1.52007e-17
1.22871e-17
9.9259e-18
8.01351e-18
6.46561e-18
5.21351e-18
4.2013e-18
3.38355e-18
2.7233e-18
2.19054e-18
1.76094e-18
1.41472e-18
1.13588e-18
9.11441e-19
7.30906e-19
5.85773e-19
4.69174e-19
3.75555e-19
3.00435e-19
2.40195e-19
1.91917e-19
1.5325e-19
1.223e-19
9.75408e-20
7.77474e-20
6.19331e-20
4.93058e-20
3.92294e-20
3.11935e-20
2.47888e-20
1.96872e-20
1.56262e-20
1.23954e-20
9.82676e-21
7.78572e-21
6.16491e-21
4.8786e-21
3.85838e-21
3.04968e-21
2.40905e-21
1.90186e-21
1.50056e-21
1.18323e-21
9.3245e-22
7.34388e-22
5.78053e-22
4.54729e-22
3.57504e-22
2.809e-22
2.2058e-22
1.73111e-22
1.35777e-22
1.06432e-22
8.33804e-23
6.52829e-23
5.10834e-23
3.99491e-23
3.12233e-23
2.43893e-23
1.90401e-23
1.48556e-23
1.15844e-23
9.02861e-24
7.03327e-24
5.47664e-24
4.26338e-24
3.31887e-24
2.58479e-24
2.01571e-24
1.57639e-24
1.23963e-24
9.84725e-25
7.96214e-25
6.62929e-25
5.7734e-25
5.35307e-25
)
;
    }
}


// ************************************************************************* //
