/*--------------------------------*- C++ -*----------------------------------*\
  =========                 |
  \\      /  F ield         | OpenFOAM: The Open Source CFD Toolbox
   \\    /   O peration     | Website:  https://openfoam.org
    \\  /    A nd           | Version:  dev
     \\/     M anipulation  |
\*---------------------------------------------------------------------------*/
FoamFile
{
    format      ascii;
    class       volScalarField;
    location    "0.06";
    object      N1;
}
// * * * * * * * * * * * * * * * * * * * * * * * * * * * * * * * * * * * * * //

dimensions      [0 0 0 0 0 0 0];

internalField   nonuniform List<scalar> 
8000
(
0.976939
0.931907
0.898438
0.868278
0.840103
0.813637
0.788516
0.764448
0.741232
0.718726
0.696828
0.675461
0.65457
0.634117
0.614073
0.59442
0.575146
0.556246
0.537717
0.519559
0.501775
0.484368
0.467343
0.450704
0.434456
0.418603
0.403147
0.388092
0.373439
0.359188
0.345341
0.331896
0.31885
0.306202
0.293947
0.282082
0.2706
0.259497
0.248766
0.2384
0.228393
0.218736
0.209422
0.200442
0.191788
0.183452
0.175426
0.1677
0.160266
0.153116
0.146241
0.139633
0.133282
0.127182
0.121324
0.1157
0.110303
0.105124
0.100157
0.0953943
0.0908285
0.086453
0.0822612
0.0782464
0.0744025
0.0707232
0.0672026
0.0638349
0.0606145
0.057536
0.054594
0.0517834
0.0490992
0.0465367
0.0440912
0.0417581
0.0395331
0.037412
0.0353906
0.0334649
0.0316312
0.0298856
0.0282247
0.0266449
0.0251429
0.0237154
0.0223593
0.0210716
0.0198492
0.0186895
0.0175896
0.016547
0.015559
0.0146233
0.0137375
0.0128993
0.0121065
0.0113571
0.0106489
0.00998003
0.00934863
0.00875287
0.00819102
0.00766142
0.00716246
0.00669262
0.00625041
0.00583443
0.00544333
0.00507581
0.00473063
0.00440661
0.00410261
0.00381755
0.0035504
0.00330017
0.00306592
0.00284675
0.0026418
0.00245026
0.00227135
0.00210433
0.00194851
0.00180322
0.00166782
0.00154171
0.00142433
0.00131514
0.00121362
0.0011193
0.00103171
0.000950417
0.000875024
0.000805141
0.000740404
0.000680471
0.00062502
0.000573748
0.000526368
0.000482612
0.000442229
0.000404981
0.000370647
0.000339019
0.000309902
0.000283113
0.000258482
0.00023585
0.000215067
0.000195995
0.000178505
0.000162475
0.000147792
0.000134353
0.00012206
0.000110823
0.000100557
9.11855e-05
8.26351e-05
7.48394e-05
6.77364e-05
6.12688e-05
5.53837e-05
5.00322e-05
4.5169e-05
4.07526e-05
3.67446e-05
3.31096e-05
2.98151e-05
2.68313e-05
2.41306e-05
2.16877e-05
1.94797e-05
1.74851e-05
1.56847e-05
1.40606e-05
1.25965e-05
1.12775e-05
1.00901e-05
9.02187e-06
8.06148e-06
7.19864e-06
6.42397e-06
5.72892e-06
5.10574e-06
4.54737e-06
4.04742e-06
3.60008e-06
3.20008e-06
2.84266e-06
2.5235e-06
2.23871e-06
1.98475e-06
1.75844e-06
1.55691e-06
1.37757e-06
1.21809e-06
1.07635e-06
9.50486e-07
8.38783e-07
7.39718e-07
6.51922e-07
5.74166e-07
5.0535e-07
4.44487e-07
3.90696e-07
3.43187e-07
3.01255e-07
2.64271e-07
2.31674e-07
2.02962e-07
1.77691e-07
1.55463e-07
1.35926e-07
1.18765e-07
1.03701e-07
9.0488e-08
7.89059e-08
6.87606e-08
5.98799e-08
5.21114e-08
4.53207e-08
3.93886e-08
3.42102e-08
2.96929e-08
2.57549e-08
2.23243e-08
1.93378e-08
1.67397e-08
1.4481e-08
1.25187e-08
1.08152e-08
9.33721e-09
8.05586e-09
6.94573e-09
5.9846e-09
5.15304e-09
4.43407e-09
3.81288e-09
3.27653e-09
2.81376e-09
2.41475e-09
2.07094e-09
1.7749e-09
1.52017e-09
1.30114e-09
1.11292e-09
9.51302e-10
8.12613e-10
6.93683e-10
5.91766e-10
5.04488e-10
4.29798e-10
3.65923e-10
3.11335e-10
2.64714e-10
2.24926e-10
1.90992e-10
1.6207e-10
1.37437e-10
1.16471e-10
9.86383e-11
8.34807e-11
7.06057e-11
5.96769e-11
5.04066e-11
4.25482e-11
3.58913e-11
3.0256e-11
2.54887e-11
2.14585e-11
1.80536e-11
1.5179e-11
1.27537e-11
1.07089e-11
8.98607e-12
7.53545e-12
6.31486e-12
5.28851e-12
4.42608e-12
3.70186e-12
3.09413e-12
2.58447e-12
2.15735e-12
1.79965e-12
1.50027e-12
1.24988e-12
1.04061e-12
8.65806e-13
7.19899e-13
5.98192e-13
4.96738e-13
4.12222e-13
3.41864e-13
2.83331e-13
2.34668e-13
1.94237e-13
1.60668e-13
1.32814e-13
1.09718e-13
9.05804e-14
7.47323e-14
6.16173e-14
5.07711e-14
4.18072e-14
3.44038e-14
2.82932e-14
2.3253e-14
1.90984e-14
1.5676e-14
1.28587e-14
1.05409e-14
8.63541e-15
7.06984e-15
5.7844e-15
4.72966e-15
3.86478e-15
3.15604e-15
2.57563e-15
2.10062e-15
1.71213e-15
1.3946e-15
1.13523e-15
9.23518e-16
7.50812e-16
6.10017e-16
4.9531e-16
4.01919e-16
3.25931e-16
2.64142e-16
2.13932e-16
1.73157e-16
1.40066e-16
1.13227e-16
9.14738e-17
7.38532e-17
5.95895e-17
4.80505e-17
3.87217e-17
3.11845e-17
2.50987e-17
2.0188e-17
1.6228e-17
1.30366e-17
1.04663e-17
8.39756e-18
6.73352e-18
5.39588e-18
4.32128e-18
3.45854e-18
2.76634e-18
2.21131e-18
1.76654e-18
1.41036e-18
1.1253e-18
8.97306e-19
7.15063e-19
5.69483e-19
4.53264e-19
3.6054e-19
2.8661e-19
2.27699e-19
1.80787e-19
1.43452e-19
1.13757e-19
9.01547e-20
7.14056e-20
5.65213e-20
4.47124e-20
3.53491e-20
2.79297e-20
2.20542e-20
1.74041e-20
1.37262e-20
1.0819e-20
8.52235e-21
6.70919e-21
5.27861e-21
4.15057e-21
3.26163e-21
2.56154e-21
2.01052e-21
1.5771e-21
1.23638e-21
9.68703e-22
7.58549e-22
5.93665e-22
4.64391e-22
3.63116e-22
2.83853e-22
2.21893e-22
1.73543e-22
1.35914e-22
1.06753e-22
8.43209e-23
6.72852e-23
5.46502e-23
4.5698e-23
3.99474e-23
3.71218e-23
0.981568
0.945854
0.915185
0.886462
0.859057
0.832916
0.807874
0.78375
0.760394
0.737693
0.715557
0.693921
0.672736
0.651965
0.631586
0.611583
0.591946
0.572671
0.553759
0.535211
0.517032
0.499227
0.4818
0.464759
0.448108
0.431852
0.415996
0.400544
0.385497
0.370857
0.356625
0.3428
0.329382
0.316367
0.303753
0.291535
0.279709
0.26827
0.25721
0.246524
0.236205
0.226244
0.216635
0.207369
0.198437
0.189832
0.181544
0.173565
0.165886
0.158499
0.151395
0.144566
0.138002
0.131696
0.12564
0.119825
0.114243
0.108887
0.103749
0.0988217
0.0940979
0.0895704
0.0852326
0.0810776
0.0770991
0.0732906
0.0696461
0.0661596
0.0628253
0.0596376
0.0565911
0.0536804
0.0509005
0.0482465
0.0457133
0.0432966
0.0409916
0.038794
0.0366997
0.0347044
0.0328043
0.0309955
0.0292743
0.027637
0.0260803
0.0246007
0.023195
0.0218601
0.020593
0.0193907
0.0182504
0.0171693
0.016145
0.0151747
0.0142562
0.0133869
0.0125648
0.0117875
0.0110529
0.0103592
0.00970424
0.00908624
0.00850339
0.00795396
0.0074363
0.00694881
0.00648998
0.00605834
0.0056525
0.0052711
0.00491288
0.00457659
0.00426107
0.0039652
0.0036879
0.00342814
0.00318496
0.00295742
0.00274464
0.00254577
0.00236
0.00218658
0.00202477
0.00187388
0.00173326
0.00160229
0.00148037
0.00136695
0.0012615
0.00116351
0.00107252
0.000988065
0.000909733
0.000837121
0.000769853
0.000707574
0.000649949
0.000596662
0.000547419
0.00050194
0.000459964
0.000421245
0.000385553
0.000352672
0.000322399
0.000294546
0.000268935
0.000245401
0.000223789
0.000203955
0.000185764
0.000169092
0.00015382
0.000139841
0.000127053
0.000115362
0.000104682
9.49308e-05
8.60341e-05
7.79221e-05
7.05305e-05
6.37997e-05
5.76747e-05
5.21048e-05
4.70428e-05
4.24456e-05
3.82733e-05
3.4489e-05
3.10591e-05
2.79523e-05
2.51402e-05
2.25965e-05
2.02971e-05
1.82199e-05
1.63447e-05
1.46531e-05
1.31281e-05
1.17541e-05
1.05172e-05
9.40425e-06
8.40364e-06
7.50462e-06
6.69741e-06
5.97312e-06
5.32369e-06
4.74177e-06
4.22069e-06
3.75442e-06
3.33747e-06
2.96488e-06
2.63215e-06
2.33523e-06
2.07045e-06
1.83448e-06
1.62433e-06
1.43731e-06
1.27098e-06
1.12316e-06
9.91879e-07
8.75363e-07
7.72024e-07
6.80434e-07
5.99314e-07
5.27515e-07
4.6401e-07
4.0788e-07
3.58303e-07
3.14543e-07
2.75944e-07
2.41921e-07
2.11953e-07
1.85573e-07
1.62369e-07
1.41972e-07
1.24055e-07
1.08327e-07
9.45303e-08
8.24358e-08
7.1841e-08
6.25661e-08
5.44525e-08
4.73595e-08
4.11631e-08
3.57535e-08
3.10343e-08
2.692e-08
2.33356e-08
2.0215e-08
1.75001e-08
1.51397e-08
1.3089e-08
1.13085e-08
9.76373e-09
8.42436e-09
7.26389e-09
6.25911e-09
5.38973e-09
4.63802e-09
3.98849e-09
3.42765e-09
2.94372e-09
2.52643e-09
2.16685e-09
1.85721e-09
1.59077e-09
1.36164e-09
1.16475e-09
9.95659e-10
8.50554e-10
7.26115e-10
6.19471e-10
5.28139e-10
4.49974e-10
3.83124e-10
3.25989e-10
2.77191e-10
2.35542e-10
2.00019e-10
1.6974e-10
1.4395e-10
1.21998e-10
1.03325e-10
8.74524e-11
7.39693e-11
6.25237e-11
5.28143e-11
4.45833e-11
3.76102e-11
3.1707e-11
2.67126e-11
2.24902e-11
1.89228e-11
1.59107e-11
1.33694e-11
1.12265e-11
9.42097e-12
7.90062e-12
6.62128e-12
5.54546e-12
4.6414e-12
3.88219e-12
3.24504e-12
2.71069e-12
2.26285e-12
1.88777e-12
1.57383e-12
1.31124e-12
1.09176e-12
9.08417e-13
7.55375e-13
6.27708e-13
5.21279e-13
4.32614e-13
3.58797e-13
2.97383e-13
2.46321e-13
2.03894e-13
1.68666e-13
1.39434e-13
1.15194e-13
9.51066e-14
7.84713e-14
6.4704e-14
5.33176e-14
4.39067e-14
3.61337e-14
2.97176e-14
2.44251e-14
2.00623e-14
1.64681e-14
1.35092e-14
1.10749e-14
9.07338e-15
7.42885e-15
6.0785e-15
4.97043e-15
4.06176e-15
3.31709e-15
2.70722e-15
2.20807e-15
1.79981e-15
1.46611e-15
1.19351e-15
9.70988e-16
7.89451e-16
6.41448e-16
5.20862e-16
4.22677e-16
3.42785e-16
2.77817e-16
2.25021e-16
1.82144e-16
1.47344e-16
1.19117e-16
9.62378e-17
7.77041e-17
6.27003e-17
5.05619e-17
4.07478e-17
3.28182e-17
2.64151e-17
2.12481e-17
1.70811e-17
1.37228e-17
1.10178e-17
8.84058e-18
7.08917e-18
5.6812e-18
4.55005e-18
3.64185e-18
2.91313e-18
2.32878e-18
1.86049e-18
1.48546e-18
1.18529e-18
9.45192e-19
7.53267e-19
5.99944e-19
4.77535e-19
3.79869e-19
3.01992e-19
2.39934e-19
1.90511e-19
1.51177e-19
1.1989e-19
9.50206e-20
7.52639e-20
5.95787e-20
4.71337e-20
3.72656e-20
2.94456e-20
2.32525e-20
1.83508e-20
1.44737e-20
1.14088e-20
8.98746e-21
7.07575e-21
5.56733e-21
4.37784e-21
3.44042e-21
2.70211e-21
2.12097e-21
1.66383e-21
1.30444e-21
1.02209e-21
8.00396e-22
6.26447e-22
4.90057e-22
3.832e-22
2.9956e-22
2.34171e-22
1.83138e-22
1.43411e-22
1.12615e-22
8.8911e-23
7.08945e-23
5.75136e-23
4.80116e-23
4.18856e-23
3.88611e-23
0.986003
0.956469
0.928376
0.901332
0.875156
0.84982
0.825269
0.801417
0.778179
0.755482
0.733268
0.711488
0.690109
0.669105
0.648459
0.628163
0.608213
0.588607
0.56935
0.550446
0.531902
0.513725
0.495922
0.4785
0.461467
0.444829
0.428592
0.412758
0.397334
0.382319
0.367717
0.353526
0.339747
0.326378
0.313415
0.300856
0.288695
0.276928
0.265548
0.25455
0.243926
0.233669
0.223771
0.214225
0.205021
0.196152
0.187608
0.179381
0.171462
0.163843
0.156514
0.149468
0.142695
0.136186
0.129934
0.123931
0.118168
0.112637
0.107331
0.102241
0.0973614
0.0926841
0.0882021
0.0839086
0.079797
0.0758608
0.0720937
0.0684896
0.0650425
0.0617467
0.0585965
0.0555866
0.0527117
0.0499666
0.0473464
0.0448464
0.0424618
0.0401882
0.0380212
0.0359566
0.0339903
0.0321182
0.0303367
0.028642
0.0270305
0.0254988
0.0240435
0.0226613
0.0213492
0.0201042
0.0189232
0.0178036
0.0167426
0.0157375
0.014786
0.0138854
0.0130336
0.0122282
0.011467
0.0107481
0.0100693
0.00942871
0.00882454
0.00825497
0.0077183
0.00721287
0.00673711
0.00628951
0.00586863
0.00547307
0.00510151
0.00475268
0.00442537
0.00411841
0.00383069
0.00356116
0.0033088
0.00307266
0.00285182
0.00264539
0.00245255
0.00227251
0.00210451
0.00194784
0.00180182
0.00166581
0.00153919
0.00142138
0.00131184
0.00121004
0.0011155
0.00102775
0.000946353
0.000870892
0.000800979
0.000736245
0.000676343
0.000620946
0.000569748
0.00052246
0.000478809
0.000438543
0.00040142
0.000367218
0.000335727
0.000306749
0.000280102
0.000255614
0.000233123
0.000212481
0.000193547
0.000176192
0.000160293
0.000145739
0.000132423
0.00012025
0.000109127
9.89708e-05
8.97037e-05
8.12532e-05
7.35523e-05
6.65393e-05
6.01569e-05
5.43523e-05
4.90765e-05
4.42847e-05
3.99353e-05
3.59901e-05
3.24139e-05
2.91743e-05
2.62417e-05
2.35888e-05
2.11904e-05
1.90236e-05
1.70673e-05
1.53024e-05
1.3711e-05
1.22773e-05
1.09863e-05
9.82466e-06
8.78016e-06
7.8416e-06
6.99881e-06
6.24253e-06
5.56433e-06
4.95658e-06
4.41232e-06
3.92526e-06
3.48967e-06
3.10038e-06
2.75272e-06
2.44243e-06
2.1657e-06
1.91906e-06
1.69939e-06
1.50387e-06
1.32997e-06
1.1754e-06
1.03812e-06
9.16257e-07
8.08169e-07
7.1236e-07
6.27494e-07
5.52373e-07
4.85923e-07
4.27184e-07
3.75297e-07
3.29494e-07
2.89088e-07
2.5347e-07
2.22092e-07
1.9447e-07
1.7017e-07
1.48808e-07
1.30041e-07
1.13565e-07
9.91107e-08
8.64387e-08
7.53367e-08
6.5617e-08
5.71133e-08
4.96786e-08
4.3183e-08
3.75117e-08
3.25636e-08
2.82493e-08
2.44904e-08
2.12175e-08
1.83697e-08
1.58936e-08
1.37421e-08
1.18739e-08
1.02529e-08
8.84732e-09
7.62934e-09
6.57465e-09
5.662e-09
4.87279e-09
4.19081e-09
3.60187e-09
3.09364e-09
2.65536e-09
2.27766e-09
1.95238e-09
1.67244e-09
1.4317e-09
1.22479e-09
1.04709e-09
8.94578e-10
7.63773e-10
6.51662e-10
5.55639e-10
4.73451e-10
4.03152e-10
3.43065e-10
2.91739e-10
2.47929e-10
2.10558e-10
1.78701e-10
1.51565e-10
1.28464e-10
1.08812e-10
9.21056e-11
7.79127e-11
6.58634e-11
5.56408e-11
4.69739e-11
3.96309e-11
3.34137e-11
2.81533e-11
2.37055e-11
1.99472e-11
1.67738e-11
1.40959e-11
1.18378e-11
9.93491e-12
8.33243e-12
6.98385e-12
5.84969e-12
4.89652e-12
4.09597e-12
3.42407e-12
2.86052e-12
2.38816e-12
1.9925e-12
1.6613e-12
1.38426e-12
1.15266e-12
9.5919e-13
7.97672e-13
6.6292e-13
5.50574e-13
4.56971e-13
3.79035e-13
3.14187e-13
2.60265e-13
2.15458e-13
1.78249e-13
1.4737e-13
1.21763e-13
1.00539e-13
8.29618e-14
6.84133e-14
5.63797e-14
4.64328e-14
3.82162e-14
3.14334e-14
2.58378e-14
2.12247e-14
1.7424e-14
1.42947e-14
1.172e-14
9.6028e-15
7.86307e-15
6.43441e-15
5.26196e-15
4.30041e-15
3.51233e-15
2.86684e-15
2.33849e-15
1.9063e-15
1.55299e-15
1.26437e-15
1.02873e-15
8.36477e-16
6.79723e-16
5.51994e-16
4.47984e-16
3.63342e-16
2.94507e-16
2.38562e-16
1.93122e-16
1.5624e-16
1.26321e-16
1.02068e-16
8.24191e-17
6.65112e-17
5.36401e-17
4.32327e-17
3.48228e-17
2.80313e-17
2.25502e-17
1.81296e-17
1.45665e-17
1.16963e-17
9.38589e-18
7.52716e-18
6.03277e-18
4.83207e-18
3.86795e-18
3.09427e-18
2.47382e-18
1.97655e-18
1.57827e-18
1.25947e-18
1.00444e-18
8.00558e-19
6.37669e-19
5.0761e-19
4.03831e-19
3.21071e-19
2.55116e-19
2.02585e-19
1.60773e-19
1.27512e-19
1.01071e-19
8.00637e-20
6.33841e-20
5.01488e-20
3.96531e-20
3.1335e-20
2.47468e-20
1.95319e-20
1.54067e-20
1.21453e-20
9.56857e-21
7.53396e-21
5.9284e-21
4.66219e-21
3.66422e-21
2.87815e-21
2.25936e-21
1.77255e-21
1.3898e-21
1.08907e-21
8.52923e-22
6.67614e-22
5.22301e-22
4.08439e-22
3.19303e-22
2.49606e-22
1.95197e-22
1.52828e-22
1.19967e-22
9.46539e-23
7.53904e-23
6.10555e-23
5.08446e-23
4.42285e-23
4.09399e-23
0.988509
0.963484
0.938178
0.913106
0.888428
0.86419
0.840409
0.817075
0.794162
0.771642
0.749491
0.727685
0.70621
0.685055
0.664214
0.643687
0.623477
0.603589
0.584031
0.564811
0.545939
0.527426
0.50928
0.49151
0.474126
0.457134
0.440543
0.424356
0.408579
0.393215
0.378266
0.363733
0.349615
0.335913
0.322622
0.309741
0.297265
0.285189
0.273507
0.262214
0.251302
0.240765
0.230595
0.220783
0.211321
0.202201
0.193414
0.184952
0.176805
0.168965
0.161423
0.15417
0.147198
0.140497
0.134059
0.127876
0.12194
0.116243
0.110776
0.105532
0.100504
0.0956831
0.0910635
0.0866377
0.082399
0.0783407
0.0744564
0.0707397
0.0671847
0.0637853
0.0605359
0.0574309
0.0544648
0.0516325
0.0489288
0.0463488
0.0438878
0.0415411
0.0393043
0.0371729
0.0351428
0.03321
0.0313704
0.0296203
0.0279561
0.026374
0.0248707
0.0234429
0.0220874
0.020801
0.0195807
0.0184237
0.0173272
0.0162884
0.0153048
0.0143739
0.0134932
0.0126605
0.0118735
0.01113
0.010428
0.00976547
0.00914053
0.00855132
0.00799609
0.00747314
0.00698084
0.00651764
0.00608205
0.00567262
0.005288
0.00492688
0.00458799
0.00427015
0.00397221
0.00369307
0.00343169
0.00318708
0.00295829
0.00274443
0.00254461
0.00235804
0.00218394
0.00202155
0.00187019
0.00172919
0.00159791
0.00147575
0.00136215
0.00125658
0.00115852
0.00106749
0.000983048
0.000904754
0.000832207
0.000765028
0.000702857
0.000645355
0.000592206
0.00054311
0.000497787
0.000455971
0.000417418
0.000381893
0.00034918
0.000319075
0.000291388
0.000265941
0.000242568
0.000221113
0.000201432
0.000183389
0.000166859
0.000151725
0.000137878
0.000125216
0.000113646
0.000103081
9.34393e-05
8.46462e-05
7.66322e-05
6.93332e-05
6.26897e-05
5.66469e-05
5.11541e-05
4.61646e-05
4.16352e-05
3.75262e-05
3.38012e-05
3.04264e-05
2.7371e-05
2.46066e-05
2.21072e-05
1.98489e-05
1.78098e-05
1.59698e-05
1.43107e-05
1.28157e-05
1.14694e-05
1.02579e-05
9.16834e-06
8.18922e-06
7.3099e-06
6.52074e-06
5.81299e-06
5.17867e-06
4.61055e-06
4.10207e-06
3.64728e-06
3.24079e-06
2.87771e-06
2.55363e-06
2.26456e-06
2.00689e-06
1.77737e-06
1.57306e-06
1.39132e-06
1.22977e-06
1.08625e-06
9.58855e-07
8.45839e-07
7.45651e-07
6.56895e-07
5.78321e-07
5.08809e-07
4.47356e-07
3.93064e-07
3.45132e-07
3.02844e-07
2.65562e-07
2.32715e-07
2.03795e-07
1.78351e-07
1.55979e-07
1.36324e-07
1.19066e-07
1.03924e-07
9.06468e-08
7.90136e-08
6.88275e-08
5.99148e-08
5.21215e-08
4.53117e-08
3.93655e-08
3.41768e-08
2.96523e-08
2.57096e-08
2.22764e-08
1.92888e-08
1.66907e-08
1.4433e-08
1.24724e-08
1.07709e-08
9.2954e-09
8.01666e-09
6.90924e-09
5.95084e-09
5.12197e-09
4.40563e-09
3.78695e-09
3.25298e-09
2.79245e-09
2.39553e-09
2.05366e-09
1.75941e-09
1.50632e-09
1.28878e-09
1.10192e-09
9.41534e-10
8.03957e-10
6.86028e-10
5.85009e-10
4.98535e-10
4.24561e-10
3.61325e-10
3.07304e-10
2.61186e-10
2.21843e-10
1.88301e-10
1.59725e-10
1.35396e-10
1.14697e-10
9.70986e-11
8.21459e-11
6.945e-11
5.86776e-11
4.95434e-11
4.18036e-11
3.52496e-11
2.97037e-11
2.50138e-11
2.10506e-11
1.77036e-11
1.48791e-11
1.24969e-11
1.04893e-11
8.79842e-12
7.37528e-12
6.17827e-12
5.17215e-12
4.32705e-12
3.61766e-12
3.02259e-12
2.52376e-12
2.10588e-12
1.75604e-12
1.46337e-12
1.21867e-12
1.01424e-12
8.43548e-13
7.01127e-13
5.82373e-13
4.83419e-13
4.01019e-13
3.32448e-13
2.75423e-13
2.28032e-13
1.88674e-13
1.56007e-13
1.28913e-13
1.06456e-13
8.78541e-14
7.24559e-14
5.97181e-14
4.91878e-14
4.04884e-14
3.33061e-14
2.73802e-14
2.24943e-14
1.84684e-14
1.51533e-14
1.24253e-14
1.01818e-14
8.33816e-15
6.82395e-15
5.58116e-15
4.56179e-15
3.72623e-15
3.04178e-15
2.48146e-15
2.02308e-15
1.64832e-15
1.34213e-15
1.09212e-15
8.88122e-16
7.21771e-16
5.86207e-16
4.75804e-16
3.85949e-16
3.12866e-16
2.53462e-16
2.05208e-16
1.66035e-16
1.34256e-16
1.08491e-16
8.76159e-17
7.07129e-17
5.70351e-17
4.59741e-17
3.7035e-17
2.98154e-17
2.39882e-17
1.92878e-17
1.54988e-17
1.24463e-17
9.98884e-18
8.01159e-18
6.42174e-18
5.14419e-18
4.11825e-18
3.29487e-18
2.63449e-18
2.10516e-18
1.68115e-18
1.34171e-18
1.07015e-18
8.53022e-19
6.79533e-19
5.40995e-19
4.30437e-19
3.42263e-19
2.71984e-19
2.16004e-19
1.71441e-19
1.35988e-19
1.07801e-19
8.54042e-20
6.76194e-20
5.35056e-20
4.2312e-20
3.34398e-20
2.64119e-20
2.08484e-20
1.64469e-20
1.29668e-20
1.02168e-20
8.04525e-21
6.33141e-21
4.97967e-21
3.91416e-21
3.0748e-21
2.41399e-21
1.89406e-21
1.48524e-21
1.16398e-21
9.1168e-22
7.13675e-22
5.58387e-22
4.36692e-22
3.41409e-22
2.66889e-22
2.08701e-22
1.63371e-22
1.28193e-22
1.01073e-22
8.04063e-23
6.49963e-23
5.39857e-23
4.68181e-23
4.32313e-23
0.98997
0.968199
0.945461
0.922353
0.899204
0.876144
0.853247
0.830554
0.808089
0.78586
0.763874
0.742135
0.720645
0.69941
0.678439
0.65774
0.637325
0.617205
0.597394
0.577903
0.558748
0.539939
0.52149
0.503412
0.485714
0.468406
0.451496
0.434992
0.418897
0.403217
0.387954
0.373111
0.358686
0.344681
0.331092
0.317918
0.305154
0.292797
0.280839
0.269277
0.258102
0.247309
0.236888
0.226833
0.217135
0.207786
0.198777
0.190099
0.181743
0.1737
0.165962
0.15852
0.151364
0.144486
0.137878
0.13153
0.125435
0.119584
0.11397
0.108583
0.103418
0.0984657
0.0937193
0.0891716
0.0848157
0.0806448
0.0766523
0.0728318
0.0691771
0.0656821
0.062341
0.0591481
0.0560978
0.0531848
0.0504038
0.0477499
0.0452181
0.0428037
0.0405021
0.0383089
0.0362198
0.0342305
0.032337
0.0305355
0.0288222
0.0271934
0.0256456
0.0241753
0.0227794
0.0214545
0.0201976
0.0190058
0.0178762
0.016806
0.0157925
0.0148332
0.0139256
0.0130674
0.0122561
0.0114897
0.010766
0.0100829
0.00943855
0.00883095
0.00825832
0.00771894
0.00721113
0.00673329
0.00628387
0.00586142
0.00546453
0.00509184
0.00474206
0.00441398
0.0041064
0.00381821
0.00354832
0.00329573
0.00305945
0.00283855
0.00263215
0.00243941
0.00225952
0.00209173
0.00193532
0.00178959
0.00165389
0.00152762
0.00141017
0.00130101
0.00119961
0.00110547
0.00101813
0.000937143
0.000862091
0.000792585
0.000728252
0.000668745
0.000613736
0.000562916
0.000515996
0.000472703
0.000432782
0.000395993
0.000362112
0.000330929
0.000302247
0.000275882
0.000251663
0.00022943
0.000209032
0.00019033
0.000173194
0.000157503
0.000143144
0.000130014
0.000118014
0.000107055
9.70525e-05
8.79293e-05
7.96136e-05
7.20389e-05
6.51437e-05
5.88711e-05
5.31688e-05
4.79883e-05
4.32849e-05
3.90177e-05
3.51486e-05
3.1643e-05
2.84688e-05
2.55965e-05
2.29992e-05
2.06522e-05
1.85327e-05
1.66201e-05
1.48951e-05
1.33406e-05
1.19406e-05
1.06805e-05
9.54725e-06
8.52867e-06
7.6138e-06
6.79264e-06
6.05609e-06
5.39589e-06
4.80451e-06
4.27515e-06
3.80162e-06
3.37833e-06
3.0002e-06
2.66264e-06
2.36151e-06
2.09306e-06
1.8539e-06
1.641e-06
1.45158e-06
1.28318e-06
1.13357e-06
1.00074e-06
8.82897e-07
7.78413e-07
6.8584e-07
6.03876e-07
5.31356e-07
4.67236e-07
4.10581e-07
3.60556e-07
3.16417e-07
2.77497e-07
2.43203e-07
2.13005e-07
1.86433e-07
1.63068e-07
1.42536e-07
1.24507e-07
1.08686e-07
9.4812e-08
8.26542e-08
7.20075e-08
6.26906e-08
5.45428e-08
4.74224e-08
4.12041e-08
3.57774e-08
3.10448e-08
2.69202e-08
2.33281e-08
2.02019e-08
1.7483e-08
1.51199e-08
1.30676e-08
1.12863e-08
9.74132e-09
8.40226e-09
7.24245e-09
6.23858e-09
5.37028e-09
4.61977e-09
3.97149e-09
3.41192e-09
2.92924e-09
2.51318e-09
2.15478e-09
1.84626e-09
1.58087e-09
1.35272e-09
1.15674e-09
9.88489e-10
8.44153e-10
7.20414e-10
6.14406e-10
5.23649e-10
4.46003e-10
3.79619e-10
3.22901e-10
2.74476e-10
2.33159e-10
1.9793e-10
1.67913e-10
1.42354e-10
1.20606e-10
1.02113e-10
8.63982e-11
7.30539e-11
6.17298e-11
5.21268e-11
4.39886e-11
3.70966e-11
3.12637e-11
2.63307e-11
2.21615e-11
1.86401e-11
1.5668e-11
1.31612e-11
1.10481e-11
9.26827e-12
7.77005e-12
6.50975e-12
5.4503e-12
4.56029e-12
3.81311e-12
3.18628e-12
2.66075e-12
2.22044e-12
1.85179e-12
1.54334e-12
1.28543e-12
1.06992e-12
8.89967e-13
7.39796e-13
6.14565e-13
5.10202e-13
4.23286e-13
3.50949e-13
2.90785e-13
2.40779e-13
1.99244e-13
1.64767e-13
1.36168e-13
1.1246e-13
9.28197e-14
7.65602e-14
6.31082e-14
5.19863e-14
4.27969e-14
3.52092e-14
2.89481e-14
2.37852e-14
1.95305e-14
1.60266e-14
1.31429e-14
1.07712e-14
8.8218e-15
7.22061e-15
5.90626e-15
4.82808e-15
3.9442e-15
3.22008e-15
2.62723e-15
2.14216e-15
1.74555e-15
1.42146e-15
1.15681e-15
9.40836e-16
7.64699e-16
6.21144e-16
5.04219e-16
4.09045e-16
3.31627e-16
2.68692e-16
2.17563e-16
1.76052e-16
1.42372e-16
1.15063e-16
9.29337e-17
7.50133e-17
6.05106e-17
4.87812e-17
3.93008e-17
3.1643e-17
2.54615e-17
2.04748e-17
1.64544e-17
1.32153e-17
1.06072e-17
8.5085e-18
6.82081e-18
5.46449e-18
4.37516e-18
3.50082e-18
2.79947e-18
2.23725e-18
1.78683e-18
1.42621e-18
1.13768e-18
9.06953e-19
7.22576e-19
5.75328e-19
4.57805e-19
3.64065e-19
2.89342e-19
2.29815e-19
1.82423e-19
1.44715e-19
1.14732e-19
9.09054e-20
7.1983e-20
5.69648e-20
4.50525e-20
3.56096e-20
2.81288e-20
2.22061e-20
1.75199e-20
1.38142e-20
1.08858e-20
8.57297e-21
6.74746e-21
5.30747e-21
4.17229e-21
3.27793e-21
2.57374e-21
2.01963e-21
1.58388e-21
1.24141e-21
9.72432e-22
7.61309e-22
5.95711e-22
4.65919e-22
3.6428e-22
2.84774e-22
2.22675e-22
1.74281e-22
1.36706e-22
1.07712e-22
8.55916e-23
6.90661e-23
5.72253e-23
4.94853e-23
4.55893e-23
0.991004
0.971534
0.95086
0.929478
0.907735
0.8858
0.863785
0.841766
0.819796
0.797915
0.776155
0.754541
0.733095
0.711838
0.69079
0.669972
0.649402
0.629099
0.609083
0.589369
0.569976
0.550918
0.532212
0.513869
0.495902
0.478321
0.461137
0.444356
0.427986
0.412031
0.396496
0.381381
0.366689
0.352419
0.33857
0.325139
0.312123
0.299519
0.28732
0.275521
0.264115
0.253096
0.242457
0.232188
0.222282
0.212731
0.203526
0.194658
0.186118
0.177897
0.169986
0.162376
0.155059
0.148025
0.141266
0.134773
0.128537
0.122551
0.116806
0.111295
0.106008
0.100939
0.0960808
0.0914253
0.0869657
0.0826952
0.078607
0.0746945
0.0709516
0.0673719
0.0639496
0.0606788
0.0575538
0.0545692
0.0517197
0.0490002
0.0464056
0.0439311
0.0415721
0.0393239
0.0371822
0.0351428
0.0332015
0.0313542
0.0295973
0.0279269
0.0263394
0.0248313
0.0233994
0.0220402
0.0207507
0.0195279
0.0183687
0.0172704
0.0162303
0.0152457
0.0143141
0.013433
0.0126001
0.0118132
0.0110701
0.0103686
0.00970682
0.00908274
0.00849454
0.00794044
0.00741871
0.00692773
0.00646593
0.00603178
0.00562386
0.00524079
0.00488123
0.00454394
0.0042277
0.00393136
0.00365382
0.00339404
0.00315101
0.00292378
0.00271144
0.00251314
0.00232804
0.00215537
0.00199439
0.00184439
0.00170471
0.00157471
0.00145379
0.00134139
0.00123696
0.00114001
0.00105004
0.000966612
0.000889291
0.000817674
0.000751382
0.000690056
0.000633359
0.000580974
0.000532603
0.000487967
0.000446804
0.000408865
0.000373922
0.000341758
0.00031217
0.00028497
0.000259981
0.000237038
0.000215986
0.000196683
0.000178994
0.000162795
0.00014797
0.000134411
0.000122019
0.000110699
0.000100367
9.09425e-05
8.23507e-05
7.45237e-05
6.7398e-05
6.0915e-05
5.50207e-05
4.96652e-05
4.48024e-05
4.039e-05
3.63889e-05
3.27631e-05
2.94798e-05
2.65084e-05
2.38213e-05
2.13927e-05
1.91994e-05
1.72198e-05
1.54344e-05
1.38251e-05
1.23756e-05
1.10709e-05
9.89728e-06
8.84234e-06
7.89471e-06
7.04404e-06
6.28094e-06
5.59685e-06
4.984e-06
4.43536e-06
3.94453e-06
3.50572e-06
3.11368e-06
2.76367e-06
2.45139e-06
2.17297e-06
1.9249e-06
1.70403e-06
1.50751e-06
1.33277e-06
1.17751e-06
1.03965e-06
9.17329e-07
8.08861e-07
7.12748e-07
6.2764e-07
5.52329e-07
4.85732e-07
4.26883e-07
3.74915e-07
3.29055e-07
2.88613e-07
2.52974e-07
2.21588e-07
1.93968e-07
1.69678e-07
1.4833e-07
1.29583e-07
1.1313e-07
9.86998e-08
8.60533e-08
7.49773e-08
6.52835e-08
5.68052e-08
4.93951e-08
4.2923e-08
3.72742e-08
3.23472e-08
2.80528e-08
2.43124e-08
2.10566e-08
1.82247e-08
1.57632e-08
1.36251e-08
1.17691e-08
1.01592e-08
8.76372e-09
7.55487e-09
6.50844e-09
5.60322e-09
4.8207e-09
4.1447e-09
3.56113e-09
3.05769e-09
2.62367e-09
2.24977e-09
1.92787e-09
1.65093e-09
1.41284e-09
1.20828e-09
1.03265e-09
8.81967e-10
7.5277e-10
6.42073e-10
5.47292e-10
4.66193e-10
3.96848e-10
3.37594e-10
2.86998e-10
2.43823e-10
2.07006e-10
1.75633e-10
1.48915e-10
1.26179e-10
1.06843e-10
9.04111e-11
7.64555e-11
6.46115e-11
5.45663e-11
4.60524e-11
3.88414e-11
3.27379e-11
2.75753e-11
2.32116e-11
1.95256e-11
1.64141e-11
1.37894e-11
1.15768e-11
9.71288e-12
8.1437e-12
6.82356e-12
5.71367e-12
4.78118e-12
3.99826e-12
3.34136e-12
2.79056e-12
2.32904e-12
1.94257e-12
1.61918e-12
1.34875e-12
1.12275e-12
9.34009e-13
7.76493e-13
6.45121e-13
5.35628e-13
4.4443e-13
3.6852e-13
3.05378e-13
2.5289e-13
2.09289e-13
1.73093e-13
1.43064e-13
1.18168e-13
9.75421e-14
8.04641e-14
6.63335e-14
5.46491e-14
4.49939e-14
3.70208e-14
3.04409e-14
2.50144e-14
2.05421e-14
1.68586e-14
1.38267e-14
1.13328e-14
9.28279e-15
7.59874e-15
6.21624e-15
5.08202e-15
4.15211e-15
3.39018e-15
2.76631e-15
2.25581e-15
1.83835e-15
1.4972e-15
1.21858e-15
9.91178e-16
8.05703e-16
6.54521e-16
5.3137e-16
4.31118e-16
3.49559e-16
2.83251e-16
2.29376e-16
1.85632e-16
1.50135e-16
1.2135e-16
9.80219e-17
7.91288e-17
6.38372e-17
5.14684e-17
4.14702e-17
3.33933e-17
2.68727e-17
2.16119e-17
1.73701e-17
1.39522e-17
1.11998e-17
8.98483e-18
7.20342e-18
5.77163e-18
4.62156e-18
3.69836e-18
2.95775e-18
2.36399e-18
1.88825e-18
1.50733e-18
1.2025e-18
9.58734e-19
7.63911e-19
6.08303e-19
4.84095e-19
3.85012e-19
3.06021e-19
2.43088e-19
1.92979e-19
1.53105e-19
1.21396e-19
9.61956e-20
7.618e-20
6.02923e-20
4.76891e-20
3.76975e-20
2.97812e-20
2.3513e-20
1.85529e-20
1.46302e-20
1.153e-20
9.08122e-21
7.14822e-21
5.62328e-21
4.421e-21
3.47369e-21
2.72772e-21
2.14068e-21
1.67897e-21
1.31608e-21
1.03102e-21
8.07253e-22
6.31717e-22
4.94118e-22
3.86349e-22
3.02033e-22
2.36162e-22
1.84812e-22
1.44922e-22
1.14121e-22
9.05962e-23
7.29929e-23
6.03495e-23
5.20563e-23
4.78612e-23
0.991758
0.973917
0.954808
0.934817
0.914257
0.893304
0.872083
0.85069
0.829197
0.807667
0.786149
0.764685
0.743315
0.722073
0.700989
0.680093
0.659413
0.638973
0.618797
0.598908
0.579325
0.560067
0.541151
0.522593
0.504406
0.486602
0.469191
0.452183
0.435586
0.419403
0.403641
0.388302
0.373388
0.358898
0.344832
0.331188
0.317963
0.305153
0.292752
0.280756
0.269159
0.257952
0.247129
0.236682
0.226603
0.216883
0.207514
0.198487
0.189793
0.181423
0.173367
0.165618
0.158166
0.151001
0.144116
0.137501
0.131148
0.125048
0.119194
0.113577
0.108189
0.103022
0.0980699
0.093324
0.0887774
0.0844233
0.0802547
0.0762652
0.0724481
0.0687974
0.0653068
0.0619705
0.0587828
0.0557381
0.052831
0.0500563
0.0474089
0.0448839
0.0424765
0.040182
0.0379962
0.0359145
0.0339328
0.0320471
0.0302534
0.0285479
0.026927
0.025387
0.0239247
0.0225366
0.0212196
0.0199705
0.0187864
0.0176644
0.0166018
0.0155958
0.0146438
0.0137435
0.0128923
0.0120881
0.0113285
0.0106115
0.00993492
0.00929689
0.0086955
0.00812891
0.0075954
0.00709328
0.00662096
0.0061769
0.00575963
0.00536773
0.00499987
0.00465476
0.00433116
0.0040279
0.00374385
0.00347795
0.00322918
0.00299657
0.00277918
0.00257613
0.0023866
0.00220978
0.0020449
0.00189127
0.00174819
0.00161501
0.00149113
0.00137596
0.00126895
0.00116959
0.00107739
0.000991872
0.000912611
0.000839191
0.000771223
0.000708341
0.0006502
0.000596476
0.000546864
0.000501079
0.000458851
0.000419928
0.000384074
0.000351069
0.000320705
0.000292788
0.000267138
0.000243585
0.000221973
0.000202153
0.000183989
0.000167354
0.000152128
0.000138201
0.000125471
0.000113842
0.000103227
9.35421e-05
8.47128e-05
7.66686e-05
6.93443e-05
6.26801e-05
5.66204e-05
5.1114e-05
4.61138e-05
4.15762e-05
3.74612e-05
3.37319e-05
3.03543e-05
2.72975e-05
2.45327e-05
2.20338e-05
1.97766e-05
1.77392e-05
1.59015e-05
1.42449e-05
1.27526e-05
1.14092e-05
1.02008e-05
9.11437e-06
8.13838e-06
7.26217e-06
6.47606e-06
5.77128e-06
5.13984e-06
4.57449e-06
4.06866e-06
3.6164e-06
3.2123e-06
2.85148e-06
2.52952e-06
2.24245e-06
1.98664e-06
1.75886e-06
1.55617e-06
1.37593e-06
1.21576e-06
1.07353e-06
9.47313e-07
8.35382e-07
7.3619e-07
6.48347e-07
5.70607e-07
5.01857e-07
4.41097e-07
3.87437e-07
3.40079e-07
2.98312e-07
2.61501e-07
2.2908e-07
2.00545e-07
1.75449e-07
1.53391e-07
1.34017e-07
1.17012e-07
1.02097e-07
8.90241e-08
7.75734e-08
6.75506e-08
5.87837e-08
5.11205e-08
4.44268e-08
3.85839e-08
3.34871e-08
2.90442e-08
2.51741e-08
2.18051e-08
1.88744e-08
1.63267e-08
1.41136e-08
1.21923e-08
1.05255e-08
9.08061e-09
7.82882e-09
6.74511e-09