/*--------------------------------*- C++ -*----------------------------------*\
  =========                 |
  \\      /  F ield         | OpenFOAM: The Open Source CFD Toolbox
   \\    /   O peration     | Website:  https://openfoam.org
    \\  /    A nd           | Version:  dev
     \\/     M anipulation  |
\*---------------------------------------------------------------------------*/
FoamFile
{
    format      ascii;
    class       volScalarField;
    location    "0.98";
    object      Exp1;
}
// * * * * * * * * * * * * * * * * * * * * * * * * * * * * * * * * * * * * * //

dimensions      [0 0 0 0 0 0 0];

internalField   uniform 0;

boundaryField
{
    frontAndBack
    {
        type            empty;
    }
    inlet
    {
        type            calculated;
        value           uniform 0;
    }
    outlet
    {
        type            calculated;
        value           uniform 0;
    }
    substrate
    {
        type            calculated;
        value           nonuniform List<scalar> 
400
(
3.1736e-24
1.01081e-23
1.77372e-23
2.60291e-23
3.49892e-23
4.46489e-23
5.50384e-23
6.61899e-23
7.81391e-23
9.09249e-23
1.04589e-22
1.19174e-22
1.34726e-22
1.51291e-22
1.68916e-22
1.87651e-22
2.07545e-22
2.28648e-22
2.51012e-22
2.74689e-22
2.99731e-22
3.26194e-22
3.54132e-22
3.83602e-22
4.14659e-22
4.47363e-22
4.81773e-22
5.1795e-22
5.55956e-22
5.95854e-22
6.37711e-22
6.81591e-22
7.27564e-22
7.75699e-22
8.26067e-22
8.78741e-22
9.33797e-22
9.9131e-22
1.05136e-21
1.11403e-21
1.17939e-21
1.24754e-21
1.31857e-21
1.39255e-21
1.46958e-21
1.54975e-21
1.63317e-21
1.71993e-21
1.81012e-21
1.90386e-21
2.00126e-21
2.10241e-21
2.20743e-21
2.31644e-21
2.42956e-21
2.54691e-21
2.6686e-21
2.79478e-21
2.92558e-21
3.06112e-21
3.20155e-21
3.34702e-21
3.49766e-21
3.65364e-21
3.8151e-21
3.98221e-21
4.15514e-21
4.33404e-21
4.5191e-21
4.7105e-21
4.90842e-21
5.11305e-21
5.32458e-21
5.54322e-21
5.76917e-21
6.00265e-21
6.24387e-21
6.49307e-21
6.75046e-21
7.01629e-21
7.29081e-21
7.57427e-21
7.86692e-21
8.16904e-21
8.4809e-21
8.80278e-21
9.13497e-21
9.47778e-21
9.83152e-21
1.01965e-20
1.0573e-20
1.09615e-20
1.13622e-20
1.17755e-20
1.22018e-20
1.26414e-20
1.30948e-20
1.35623e-20
1.40444e-20
1.45414e-20
1.50539e-20
1.55822e-20
1.61269e-20
1.66883e-20
1.72671e-20
1.78636e-20
1.84784e-20
1.91121e-20
1.97652e-20
2.04383e-20
2.11319e-20
2.18466e-20
2.25831e-20
2.3342e-20
2.41239e-20
2.49296e-20
2.57596e-20
2.66148e-20
2.74958e-20
2.84034e-20
2.93384e-20
3.03016e-20
3.12937e-20
3.23157e-20
3.33685e-20
3.44528e-20
3.55696e-20
3.67199e-20
3.79047e-20
3.91249e-20
4.03815e-20
4.16757e-20
4.30086e-20
4.43812e-20
4.57947e-20
4.72502e-20
4.87492e-20
5.02926e-20
5.1882e-20
5.35186e-20
5.52037e-20
5.69388e-20
5.87254e-20
6.05649e-20
6.24588e-20
6.44088e-20
6.64164e-20
6.84834e-20
7.06114e-20
7.28022e-20
7.50577e-20
7.73797e-20
7.97701e-20
8.22309e-20
8.47641e-20
8.73719e-20
9.00564e-20
9.28197e-20
9.56643e-20
9.85924e-20
1.01606e-19
1.04709e-19
1.07902e-19
1.11189e-19
1.14572e-19
1.18054e-19
1.21638e-19
1.25327e-19
1.29124e-19
1.33032e-19
1.37053e-19
1.41193e-19
1.45452e-19
1.49836e-19
1.54348e-19
1.58992e-19
1.6377e-19
1.68687e-19
1.73748e-19
1.78956e-19
1.84315e-19
1.89829e-19
1.95504e-19
2.01343e-19
2.07352e-19
2.13535e-19
2.19897e-19
2.26443e-19
2.33178e-19
2.40109e-19
2.4724e-19
2.54577e-19
2.62126e-19
2.69892e-19
2.77883e-19
2.86105e-19
2.94563e-19
3.03265e-19
3.12218e-19
3.21428e-19
3.30903e-19
3.40651e-19
3.50678e-19
3.60994e-19
3.71606e-19
3.82522e-19
3.93751e-19
4.05302e-19
4.17184e-19
4.29406e-19
4.41977e-19
4.54908e-19
4.68208e-19
4.81888e-19
4.95959e-19
5.10431e-19
5.25316e-19
5.40624e-19
5.56369e-19
5.72561e-19
5.89214e-19
6.06341e-19
6.23954e-19
6.42066e-19
6.60693e-19
6.79848e-19
6.99545e-19
7.198e-19
7.40629e-19
7.62046e-19
7.84069e-19
8.06713e-19
8.29996e-19
8.53937e-19
8.78551e-19
9.0386e-19
9.2988e-19
9.56632e-19
9.84136e-19
1.01241e-18
1.04148e-18
1.07137e-18
1.10209e-18
1.13367e-18
1.16614e-18
1.19952e-18
1.23382e-18
1.26909e-18
1.30534e-18
1.3426e-18
1.38089e-18
1.42026e-18
1.46071e-18
1.50229e-18
1.54503e-18
1.58895e-18
1.63409e-18
1.68048e-18
1.72815e-18
1.77715e-18
1.82749e-18
1.87922e-18
1.93239e-18
1.98701e-18
2.04314e-18
2.10081e-18
2.16007e-18
2.22096e-18
2.28351e-18
2.34778e-18
2.41381e-18
2.48164e-18
2.55133e-18
2.62292e-18
2.69646e-18
2.772e-18
2.8496e-18
2.92931e-18
3.01119e-18
3.09528e-18
3.18166e-18
3.27037e-18
3.36148e-18
3.45505e-18
3.55115e-18
3.64983e-18
3.75117e-18
3.85524e-18
3.9621e-18
4.07182e-18
4.18448e-18
4.30016e-18
4.41893e-18
4.54086e-18
4.66605e-18
4.79456e-18
4.92649e-18
5.06192e-18
5.20094e-18
5.34363e-18
5.4901e-18
5.64043e-18
5.79471e-18
5.95306e-18
6.11556e-18
6.28232e-18
6.45344e-18
6.62902e-18
6.80919e-18
6.99404e-18
7.18369e-18
7.37826e-18
7.57786e-18
7.78261e-18
7.99264e-18
8.20806e-18
8.429e-18
8.65559e-18
8.88797e-18
9.12626e-18
9.3706e-18
9.62112e-18
9.87797e-18
1.01413e-17
1.04112e-17
1.06879e-17
1.09714e-17
1.12621e-17
1.15599e-17
1.1865e-17
1.21777e-17
1.2498e-17
1.28261e-17
1.31622e-17
1.35064e-17
1.38588e-17
1.42197e-17
1.45891e-17
1.49673e-17
1.53544e-17
1.57505e-17
1.61558e-17
1.65705e-17
1.69946e-17
1.74283e-17
1.78718e-17
1.83252e-17
1.87886e-17
1.92621e-17
1.97459e-17
2.024e-17
2.07445e-17
2.12596e-17
2.17852e-17
2.23215e-17
2.28684e-17
2.34261e-17
2.39944e-17
2.45735e-17
2.51632e-17
2.57634e-17
2.63742e-17
2.69953e-17
2.76265e-17
2.82678e-17
2.89188e-17
2.95793e-17
3.0249e-17
3.09273e-17
3.1614e-17
3.23084e-17
3.30101e-17
3.37182e-17
3.44322e-17
3.51511e-17
3.5874e-17
3.65998e-17
3.73275e-17
3.80557e-17
3.87829e-17
3.95076e-17
4.0228e-17
4.09423e-17
4.16482e-17
4.23435e-17
4.30256e-17
4.36917e-17
4.43388e-17
4.49635e-17
4.55623e-17
4.61311e-17
4.66659e-17
4.7162e-17
4.76145e-17
4.80184e-17
4.83682e-17
4.86583e-17
4.88832e-17
4.90376e-17
4.91165e-17
)
;
    }
    Wall
    {
        type            calculated;
        value           nonuniform List<scalar> 
400
(
3.17354e-24
1.01079e-23
1.77369e-23
2.60285e-23
3.49884e-23
4.46478e-23
5.5037e-23
6.61881e-23
7.81368e-23
9.09221e-23
1.04585e-22
1.1917e-22
1.34721e-22
1.51285e-22
1.6891e-22
1.87644e-22
2.07536e-22
2.28638e-22
2.51001e-22
2.74677e-22
2.99719e-22
3.26181e-22
3.54117e-22
3.83585e-22
4.14641e-22
4.47344e-22
4.81753e-22
5.17928e-22
5.55933e-22
5.9583e-22
6.37685e-22
6.81565e-22
7.27536e-22
7.75669e-22
8.26036e-22
8.78709e-22
9.33763e-22
9.91274e-22
1.05132e-21
1.11399e-21
1.17935e-21
1.2475e-21
1.31852e-21
1.3925e-21
1.46953e-21
1.5497e-21
1.63312e-21
1.71987e-21
1.81006e-21
1.9038e-21
2.00119e-21
2.10234e-21
2.20736e-21
2.31637e-21
2.42948e-21
2.54682e-21
2.66852e-21
2.79469e-21
2.92548e-21
3.06102e-21
3.20145e-21
3.34691e-21
3.49755e-21
3.65352e-21
3.81498e-21
3.98209e-21
4.15501e-21
4.33391e-21
4.51897e-21
4.71036e-21
4.90827e-21
5.1129e-21
5.32442e-21
5.54306e-21
5.769e-21
6.00248e-21
6.24369e-21
6.49288e-21
6.75026e-21
7.01609e-21
7.2906e-21
7.57405e-21
7.86669e-21
8.1688e-21
8.48065e-21
8.80253e-21
9.13471e-21
9.47751e-21
9.83124e-21
1.01962e-20
1.05727e-20
1.09612e-20
1.13619e-20
1.17752e-20
1.22014e-20
1.2641e-20
1.30944e-20
1.35619e-20
1.4044e-20
1.4541e-20
1.50535e-20
1.55818e-20
1.61264e-20
1.66878e-20
1.72666e-20
1.78631e-20
1.84779e-20
1.91116e-20
1.97647e-20
2.04377e-20
2.11313e-20
2.1846e-20
2.25825e-20
2.33413e-20
2.41233e-20
2.49289e-20
2.57589e-20
2.6614e-20
2.7495e-20
2.84026e-20
2.93376e-20
3.03007e-20
3.12929e-20
3.23149e-20
3.33675e-20
3.44518e-20
3.55686e-20
3.67189e-20
3.79036e-20
3.91238e-20
4.03804e-20
4.16746e-20
4.30074e-20
4.438e-20
4.57934e-20
4.7249e-20
4.87478e-20
5.02913e-20
5.18806e-20
5.35171e-20
5.52022e-20
5.69373e-20
5.87238e-20
6.05632e-20
6.24571e-20
6.44071e-20
6.64146e-20
6.84816e-20
7.06095e-20
7.28003e-20
7.50557e-20
7.73776e-20
7.9768e-20
8.22287e-20
8.47619e-20
8.73696e-20
9.0054e-20
9.28173e-20
9.56618e-20
9.85898e-20
1.01604e-19
1.04706e-19
1.07899e-19
1.11186e-19
1.14569e-19
1.18051e-19
1.21635e-19
1.25324e-19
1.29121e-19
1.33028e-19
1.3705e-19
1.41189e-19
1.45449e-19
1.49832e-19
1.54344e-19
1.58987e-19
1.63766e-19
1.68683e-19
1.73743e-19
1.78951e-19
1.8431e-19
1.89824e-19
1.95499e-19
2.01338e-19
2.07346e-19
2.13529e-19
2.19891e-19
2.26437e-19
2.33172e-19
2.40103e-19
2.47233e-19
2.5457e-19
2.62119e-19
2.69885e-19
2.77876e-19
2.86097e-19
2.94555e-19
3.03257e-19
3.12209e-19
3.2142e-19
3.30894e-19
3.40642e-19
3.50669e-19
3.60985e-19
3.71596e-19
3.82512e-19
3.93741e-19
4.05291e-19
4.17173e-19
4.29394e-19
4.41965e-19
4.54896e-19
4.68196e-19
4.81876e-19
4.95946e-19
5.10418e-19
5.25302e-19
5.4061e-19
5.56354e-19
5.72546e-19
5.89199e-19
6.06325e-19
6.23937e-19
6.4205e-19
6.60676e-19
6.7983e-19
6.99527e-19
7.19782e-19
7.40609e-19
7.62026e-19
7.84048e-19
8.06692e-19
8.29975e-19
8.53914e-19
8.78529e-19
9.03836e-19
9.29856e-19
9.56607e-19
9.8411e-19
1.01239e-18
1.04146e-18
1.07134e-18
1.10206e-18
1.13364e-18
1.16611e-18
1.19948e-18
1.23379e-18
1.26905e-18
1.3053e-18
1.34256e-18
1.38086e-18
1.42022e-18
1.46067e-18
1.50226e-18
1.54499e-18
1.58891e-18
1.63405e-18
1.68044e-18
1.72811e-18
1.7771e-18
1.82744e-18
1.87918e-18
1.93234e-18
1.98696e-18
2.04309e-18
2.10076e-18
2.16002e-18
2.2209e-18
2.28345e-18
2.34772e-18
2.41375e-18
2.48158e-18
2.55126e-18
2.62285e-18
2.69639e-18
2.77193e-18
2.84953e-18
2.92924e-18
3.01111e-18
3.0952e-18
3.18157e-18
3.27028e-18
3.36139e-18
3.45496e-18
3.55105e-18
3.64973e-18
3.75107e-18
3.85513e-18
3.96199e-18
4.07171e-18
4.18437e-18
4.30005e-18
4.41881e-18
4.54074e-18
4.66592e-18
4.79443e-18
4.92636e-18
5.06179e-18
5.2008e-18
5.34349e-18
5.48996e-18
5.64028e-18
5.79456e-18
5.9529e-18
6.1154e-18
6.28215e-18
6.45327e-18
6.62885e-18
6.80901e-18
6.99386e-18
7.18351e-18
7.37807e-18
7.57766e-18
7.78241e-18
7.99243e-18
8.20784e-18
8.42878e-18
8.65537e-18
8.88774e-18
9.12603e-18
9.37036e-18
9.62088e-18
9.87772e-18
1.0141e-17
1.04109e-17
1.06876e-17
1.09712e-17
1.12618e-17
1.15596e-17
1.18647e-17
1.21774e-17
1.24977e-17
1.28258e-17
1.31618e-17
1.3506e-17
1.38585e-17
1.42193e-17
1.45888e-17
1.4967e-17
1.5354e-17
1.57501e-17
1.61554e-17
1.65701e-17
1.69942e-17
1.74279e-17
1.78714e-17
1.83248e-17
1.87881e-17
1.92617e-17
1.97454e-17
2.02395e-17
2.0744e-17
2.12591e-17
2.17847e-17
2.23209e-17
2.28679e-17
2.34255e-17
2.39939e-17
2.45729e-17
2.51626e-17
2.57628e-17
2.63735e-17
2.69946e-17
2.76259e-17
2.82671e-17
2.89182e-17
2.95786e-17
3.02483e-17
3.09266e-17
3.16133e-17
3.23077e-17
3.30093e-17
3.37175e-17
3.44314e-17
3.51503e-17
3.58732e-17
3.6599e-17
3.73267e-17
3.80548e-17
3.8782e-17
3.95067e-17
4.02271e-17
4.09414e-17
4.16473e-17
4.23426e-17
4.30247e-17
4.36908e-17
4.43379e-17
4.49626e-17
4.55614e-17
4.61302e-17
4.6665e-17
4.71611e-17
4.76136e-17
4.80175e-17
4.83673e-17
4.86575e-17
4.88825e-17
4.90369e-17
4.91158e-17
)
;
    }
}


// ************************************************************************* //
