/*--------------------------------*- C++ -*----------------------------------*\
  =========                 |
  \\      /  F ield         | OpenFOAM: The Open Source CFD Toolbox
   \\    /   O peration     | Website:  https://openfoam.org
    \\  /    A nd           | Version:  dev
     \\/     M anipulation  |
\*---------------------------------------------------------------------------*/
FoamFile
{
    format      ascii;
    class       volScalarField;
    location    "0.98";
    object      N1;
}
// * * * * * * * * * * * * * * * * * * * * * * * * * * * * * * * * * * * * * //

dimensions      [0 0 0 0 0 0 0];

internalField   nonuniform List<scalar> 
8000
(
2.40955e-23
7.67645e-23
1.34728e-22
1.97744e-22
2.65857e-22
3.39305e-22
4.1832e-22
5.03148e-22
5.94063e-22
6.91362e-22
7.95364e-22
9.064e-22
1.02482e-21
1.15097e-21
1.28523e-21
1.42796e-21
1.57955e-21
1.74038e-21
1.91086e-21
2.09137e-21
2.28233e-21
2.48416e-21
2.69727e-21
2.9221e-21
3.15909e-21
3.40869e-21
3.67135e-21
3.94754e-21
4.23775e-21
4.54245e-21
4.86216e-21
5.19739e-21
5.54865e-21
5.91649e-21
6.30145e-21
6.7041e-21
7.12502e-21
7.56479e-21
8.02402e-21
8.50334e-21
9.00337e-21
9.52477e-21
1.00682e-20
1.06344e-20
1.1224e-20
1.18377e-20
1.24763e-20
1.31406e-20
1.38313e-20
1.45492e-20
1.52952e-20
1.607e-20
1.68746e-20
1.77099e-20
1.85767e-20
1.9476e-20
2.04088e-20
2.1376e-20
2.23786e-20
2.34178e-20
2.44946e-20
2.561e-20
2.67653e-20
2.79616e-20
2.92e-20
3.04819e-20
3.18085e-20
3.3181e-20
3.46009e-20
3.60696e-20
3.75883e-20
3.91587e-20
4.07822e-20
4.24603e-20
4.41947e-20
4.5987e-20
4.78388e-20
4.97519e-20
5.17281e-20
5.37692e-20
5.58771e-20
5.80537e-20
6.03011e-20
6.26213e-20
6.50164e-20
6.74885e-20
7.00401e-20
7.26732e-20
7.53904e-20
7.8194e-20
8.10867e-20
8.40709e-20
8.71493e-20
9.03247e-20
9.35999e-20
9.69778e-20
1.00461e-19
1.04054e-19
1.07758e-19
1.11578e-19
1.15516e-19
1.19576e-19
1.23761e-19
1.28076e-19
1.32524e-19
1.37109e-19
1.41835e-19
1.46705e-19
1.51725e-19
1.56898e-19
1.62229e-19
1.67723e-19
1.73384e-19
1.79218e-19
1.85228e-19
1.91422e-19
1.97802e-19
2.04376e-19
2.11149e-19
2.18127e-19
2.25314e-19
2.32719e-19
2.40347e-19
2.48204e-19
2.56297e-19
2.64634e-19
2.7322e-19
2.82064e-19
2.91173e-19
3.00555e-19
3.10217e-19
3.20167e-19
3.30415e-19
3.40969e-19
3.51837e-19
3.63029e-19
3.74554e-19
3.86422e-19
3.98643e-19
4.11227e-19
4.24184e-19
4.37526e-19
4.51263e-19
4.65408e-19
4.79971e-19
4.94965e-19
5.10403e-19
5.26297e-19
5.42661e-19
5.59508e-19
5.76851e-19
5.94707e-19
6.13088e-19
6.32011e-19
6.51492e-19
6.71545e-19
6.92188e-19
7.13439e-19
7.35313e-19
7.5783e-19
7.81007e-19
8.04865e-19
8.29422e-19
8.54698e-19
8.80715e-19
9.07494e-19
9.35056e-19
9.63424e-19
9.92622e-19
1.02267e-18
1.0536e-18
1.08543e-18
1.11819e-18
1.15191e-18
1.1866e-18
1.22231e-18
1.25906e-18
1.29688e-18
1.33579e-18
1.37584e-18
1.41705e-18
1.45946e-18
1.5031e-18
1.54801e-18
1.59422e-18
1.64177e-18
1.69069e-18
1.74104e-18
1.79284e-18
1.84614e-18
1.90098e-18
1.9574e-18
2.01546e-18
2.07519e-18
2.13664e-18
2.19987e-18
2.26492e-18
2.33184e-18
2.40069e-18
2.47153e-18
2.5444e-18
2.61936e-18
2.69648e-18
2.77581e-18
2.85742e-18
2.94138e-18
3.02774e-18
3.11657e-18
3.20795e-18
3.30194e-18
3.39862e-18
3.49807e-18
3.60036e-18
3.70557e-18
3.81378e-18
3.92508e-18
4.03955e-18
4.15729e-18
4.27838e-18
4.40291e-18
4.53098e-18
4.6627e-18
4.79815e-18
4.93745e-18
5.0807e-18
5.22802e-18
5.37951e-18
5.53528e-18
5.69547e-18
5.86018e-18
6.02955e-18
6.2037e-18
6.38277e-18
6.56689e-18
6.7562e-18
6.95084e-18
7.15095e-18
7.3567e-18
7.56822e-18
7.78569e-18
8.00926e-18
8.2391e-18
8.47538e-18
8.71828e-18
8.96798e-18
9.22466e-18
9.4885e-18
9.75972e-18
1.00385e-17
1.03251e-17
1.06196e-17
1.09223e-17
1.12335e-17
1.15533e-17
1.18819e-17
1.22197e-17
1.25669e-17
1.29237e-17
1.32903e-17
1.36671e-17
1.40543e-17
1.44522e-17
1.4861e-17
1.52811e-17
1.57128e-17
1.61564e-17
1.66121e-17
1.70804e-17
1.75615e-17
1.80557e-17
1.85635e-17
1.90852e-17
1.96212e-17
2.01718e-17
2.07374e-17
2.13184e-17
2.19152e-17
2.25282e-17
2.31579e-17
2.38047e-17
2.44689e-17
2.51512e-17
2.58519e-17
2.65716e-17
2.73106e-17
2.80696e-17
2.8849e-17
2.96493e-17
3.04712e-17
3.1315e-17
3.21815e-17
3.30711e-17
3.39846e-17
3.49223e-17
3.58851e-17
3.68735e-17
3.78881e-17
3.89297e-17
3.99989e-17
4.10963e-17
4.22228e-17
4.33789e-17
4.45655e-17
4.57833e-17
4.70331e-17
4.83156e-17
4.96316e-17
5.09821e-17
5.23677e-17
5.37894e-17
5.52479e-17
5.67443e-17
5.82794e-17
5.98541e-17
6.14694e-17
6.31262e-17
6.48254e-17
6.65681e-17
6.83553e-17
7.01879e-17
7.20671e-17
7.39938e-17
7.59692e-17
7.79943e-17
8.00702e-17
8.21981e-17
8.4379e-17
8.6614e-17
8.89045e-17
9.12514e-17
9.36559e-17
9.61194e-17
9.86428e-17
1.01227e-16
1.03875e-16
1.06585e-16
1.09361e-16
1.12202e-16
1.15111e-16
1.18088e-16
1.21134e-16
1.24251e-16
1.2744e-16
1.30702e-16
1.34038e-16
1.37449e-16
1.40936e-16
1.44499e-16
1.48141e-16
1.51862e-16
1.55662e-16
1.59542e-16
1.63503e-16
1.67546e-16
1.7167e-16
1.75877e-16
1.80166e-16
1.84537e-16
1.8899e-16
1.93525e-16
1.98142e-16
2.02839e-16
2.07616e-16
2.12471e-16
2.17403e-16
2.2241e-16
2.27489e-16
2.32639e-16
2.37857e-16
2.43138e-16
2.48479e-16
2.53875e-16
2.59321e-16
2.64812e-16
2.70341e-16
2.75901e-16
2.81483e-16
2.87079e-16
2.9268e-16
2.98273e-16
3.03846e-16
3.09387e-16
3.1488e-16
3.20309e-16
3.25657e-16
3.30903e-16
3.36026e-16
3.41002e-16
3.45807e-16
3.50412e-16
3.54787e-16
3.589e-16
3.62715e-16
3.66195e-16
3.69301e-16
3.71992e-16
3.74223e-16
3.75953e-16
3.7714e-16
3.77747e-16
2.36043e-23
7.56703e-23
1.33144e-22
1.95945e-22
2.64069e-22
3.37674e-22
4.16965e-22
5.02178e-22
5.93582e-22
6.91478e-22
7.96186e-22
9.08043e-22
1.0274e-21
1.15463e-21
1.2901e-21
1.43419e-21
1.5873e-21
1.74982e-21
1.92215e-21
2.10471e-21
2.29793e-21
2.50221e-21
2.71801e-21
2.94576e-21
3.18592e-21
3.43895e-21
3.70532e-21
3.98552e-21
4.28004e-21
4.58938e-21
4.91406e-21
5.25462e-21
5.61159e-21
5.98552e-21
6.37699e-21
6.78657e-21
7.21487e-21
7.66249e-21
8.13005e-21
8.61821e-21
9.12761e-21
9.65893e-21
1.02129e-20
1.07901e-20
1.13914e-20
1.20175e-20
1.26691e-20
1.33471e-20
1.40522e-20
1.47853e-20
1.55473e-20
1.63389e-20
1.7161e-20
1.80147e-20
1.89008e-20
1.98204e-20
2.07743e-20
2.17637e-20
2.27895e-20
2.38529e-20
2.4955e-20
2.60969e-20
2.72797e-20
2.85047e-20
2.97732e-20
3.10863e-20
3.24454e-20
3.38519e-20
3.53071e-20
3.68124e-20
3.83694e-20
3.99795e-20
4.16442e-20
4.33653e-20
4.51442e-20
4.69827e-20
4.88826e-20
5.08455e-20
5.28734e-20
5.49682e-20
5.71317e-20
5.9366e-20
6.16731e-20
6.40552e-20
6.65145e-20
6.90531e-20
7.16735e-20
7.43779e-20
7.71688e-20
8.00488e-20
8.30204e-20
8.60864e-20
8.92493e-20
9.25121e-20
9.58777e-20
9.93491e-20
1.02929e-19
1.06621e-19
1.10429e-19
1.14355e-19
1.18403e-19
1.22577e-19
1.2688e-19
1.31317e-19
1.3589e-19
1.40604e-19
1.45463e-19
1.50472e-19
1.55634e-19
1.60954e-19
1.66437e-19
1.72087e-19
1.7791e-19
1.8391e-19
1.90092e-19
1.96462e-19
2.03026e-19
2.09789e-19
2.16756e-19
2.23934e-19
2.31329e-19
2.38946e-19
2.46794e-19
2.54878e-19
2.63205e-19
2.71782e-19
2.80617e-19
2.89717e-19
2.9909e-19
3.08743e-19
3.18686e-19
3.28925e-19
3.39471e-19
3.50331e-19
3.61516e-19
3.73033e-19
3.84894e-19
3.97108e-19
4.09685e-19
4.22636e-19
4.35971e-19
4.49702e-19
4.63841e-19
4.78399e-19
4.93388e-19
5.0882e-19
5.2471e-19
5.41069e-19
5.57912e-19
5.75252e-19
5.93104e-19
6.11483e-19
6.30403e-19
6.49881e-19
6.69933e-19
6.90575e-19
7.11824e-19
7.33698e-19
7.56215e-19
7.79394e-19
8.03252e-19
8.27811e-19
8.5309e-19
8.7911e-19
9.05893e-19
9.33459e-19
9.61832e-19
9.91036e-19
1.02109e-18
1.05203e-18
1.08387e-18
1.11664e-18
1.15036e-18
1.18507e-18
1.22079e-18
1.25755e-18
1.29538e-18
1.33431e-18
1.37438e-18
1.41561e-18
1.45804e-18
1.5017e-18
1.54663e-18
1.59286e-18
1.64043e-18
1.68939e-18
1.73976e-18
1.79159e-18
1.84492e-18
1.89979e-18
1.95625e-18
2.01434e-18
2.07411e-18
2.13561e-18
2.19888e-18
2.26398e-18
2.33095e-18
2.39985e-18
2.47074e-18
2.54367e-18
2.61869e-18
2.69588e-18
2.77528e-18
2.85696e-18
2.94098e-18
3.02742e-18
3.11633e-18
3.2078e-18
3.30188e-18
3.39866e-18
3.4982e-18
3.60059e-18
3.70591e-18
3.81424e-18
3.92566e-18
4.04025e-18
4.15812e-18
4.27934e-18
4.40401e-18
4.53224e-18
4.6641e-18
4.79972e-18
4.93919e-18
5.08262e-18
5.23012e-18
5.3818e-18
5.53778e-18
5.69818e-18
5.86311e-18
6.03271e-18
6.2071e-18
6.38642e-18
6.5708e-18
6.76038e-18
6.9553e-18
7.15572e-18
7.36177e-18
7.57362e-18
7.79143e-18
8.01535e-18
8.24555e-18
8.48222e-18
8.72551e-18
8.97562e-18
9.23273e-18
9.49703e-18
9.76871e-18
1.0048e-17
1.0335e-17
1.06301e-17
1.09334e-17
1.12451e-17
1.15655e-17
1.18948e-17
1.22333e-17
1.25811e-17
1.29386e-17
1.33059e-17
1.36835e-17
1.40715e-17
1.44702e-17
1.48799e-17
1.53009e-17
1.57335e-17
1.6178e-17
1.66347e-17
1.7104e-17
1.75862e-17
1.80816e-17
1.85906e-17
1.91135e-17
1.96507e-17
2.02026e-17
2.07696e-17
2.1352e-17
2.19503e-17
2.25649e-17
2.31962e-17
2.38446e-17
2.45106e-17
2.51947e-17
2.58973e-17
2.66189e-17
2.736e-17
2.8121e-17
2.89026e-17
2.97052e-17
3.05294e-17
3.13757e-17
3.22447e-17
3.3137e-17
3.40532e-17
3.49939e-17
3.59596e-17
3.69511e-17
3.79689e-17
3.90139e-17
4.00865e-17
4.11876e-17
4.23178e-17
4.34778e-17
4.46685e-17
4.58905e-17
4.71446e-17
4.84317e-17
4.97525e-17
5.11078e-17
5.24986e-17
5.39256e-17
5.53898e-17
5.68919e-17
5.8433e-17
6.0014e-17
6.16358e-17
6.32993e-17
6.50056e-17
6.67557e-17
6.85505e-17
7.03912e-17
7.22787e-17
7.42141e-17
7.61985e-17
7.8233e-17
8.03188e-17
8.24569e-17
8.46485e-17
8.68947e-17
8.91968e-17
9.15559e-17
9.39732e-17
9.64499e-17
9.89873e-17
1.01586e-16
1.04249e-16
1.06975e-16
1.09767e-16
1.12626e-16
1.15553e-16
1.18549e-16
1.21616e-16
1.24754e-16
1.27965e-16
1.3125e-16
1.3461e-16
1.38047e-16
1.41561e-16
1.45153e-16
1.48824e-16
1.52576e-16
1.56409e-16
1.60325e-16
1.64323e-16
1.68404e-16
1.72569e-16
1.76819e-16
1.81153e-16
1.85573e-16
1.90077e-16
1.94666e-16
1.9934e-16
2.04098e-16
2.08939e-16
2.13862e-16
2.18866e-16
2.2395e-16
2.29111e-16
2.34348e-16
2.39657e-16
2.45037e-16
2.50482e-16
2.55989e-16
2.61554e-16
2.67171e-16
2.72835e-16
2.78538e-16
2.84274e-16
2.90035e-16
2.9581e-16
3.0159e-16
3.07364e-16
3.13119e-16
3.18841e-16
3.24516e-16
3.30126e-16
3.35653e-16
3.41077e-16
3.46376e-16
3.51526e-16
3.56501e-16
3.61271e-16
3.65807e-16
3.70075e-16
3.74038e-16
3.77658e-16
3.80894e-16
3.83701e-16
3.86036e-16
3.87851e-16
3.89103e-16
3.89747e-16
2.31623e-23
7.43095e-23
1.30718e-22
1.92553e-22
2.59908e-22
3.32914e-22
4.11749e-22
4.96634e-22
5.87826e-22
6.85616e-22
7.90321e-22
9.02281e-22
1.02185e-21
1.14939e-21
1.28529e-21
1.42993e-21
1.5837e-21
1.74702e-21
1.92029e-21
2.10394e-21
2.29839e-21
2.50407e-21
2.72144e-21
2.95094e-21
3.19305e-21
3.44823e-21
3.71696e-21
3.99975e-21
4.2971e-21
4.60953e-21
4.93757e-21
5.28175e-21
5.64265e-21
6.02082e-21
6.41685e-21
6.83134e-21
7.2649e-21
7.71815e-21
8.19174e-21
8.68633e-21
9.20259e-21
9.74121e-21
1.03029e-20
1.08884e-20
1.14985e-20
1.21338e-20
1.27953e-20
1.34836e-20
1.41997e-20
1.49444e-20
1.57185e-20
1.65229e-20
1.73587e-20
1.82266e-20
1.91277e-20
2.00629e-20
2.10333e-20
2.204e-20
2.3084e-20
2.41663e-20
2.52883e-20
2.64509e-20
2.76555e-20
2.89033e-20
3.01954e-20
3.15333e-20
3.29183e-20
3.43517e-20
3.5835e-20
3.73697e-20
3.89571e-20
4.0599e-20
4.22968e-20
4.40522e-20
4.58669e-20
4.77425e-20
4.9681e-20
5.16841e-20
5.37537e-20
5.58917e-20
5.81001e-20
6.0381e-20
6.27365e-20
6.51687e-20
6.768e-20
7.02725e-20
7.29486e-20
7.57109e-20
7.85617e-20
8.15037e-20
8.45396e-20
8.7672e-20
9.09037e-20
9.42377e-20
9.7677e-20
1.01225e-19
1.04883e-19
1.08657e-19
1.12549e-19
1.16562e-19
1.207e-19
1.24967e-19
1.29366e-19
1.33902e-19
1.38578e-19
1.43398e-19
1.48366e-19
1.53488e-19
1.58766e-19
1.64207e-19
1.69814e-19
1.75593e-19
1.81548e-19
1.87684e-19
1.94008e-19
2.00524e-19
2.07238e-19
2.14155e-19
2.21282e-19
2.28625e-19
2.36189e-19
2.43983e-19
2.52011e-19
2.60281e-19
2.68801e-19
2.77576e-19
2.86615e-19
2.95926e-19
3.05516e-19
3.15393e-19
3.25566e-19
3.36044e-19
3.46834e-19
3.57947e-19
3.69392e-19
3.81178e-19
3.93315e-19
4.05814e-19
4.18684e-19
4.31937e-19
4.45584e-19
4.59637e-19
4.74106e-19
4.89005e-19
5.04345e-19
5.20139e-19
5.36401e-19
5.53144e-19
5.70382e-19
5.88129e-19
6.064e-19
6.2521e-19
6.44576e-19
6.64512e-19
6.85035e-19
7.06163e-19
7.27912e-19
7.50301e-19
7.73349e-19
7.97073e-19
8.21494e-19
8.46632e-19
8.72507e-19
8.99141e-19
9.26555e-19
9.54773e-19
9.83816e-19
1.01371e-18
1.04448e-18
1.07614e-18
1.10873e-18
1.14228e-18
1.1768e-18
1.21233e-18
1.24889e-18
1.28652e-18
1.32525e-18
1.36511e-18
1.40612e-18
1.44833e-18
1.49176e-18
1.53646e-18
1.58245e-18
1.62978e-18
1.67848e-18
1.72859e-18
1.78016e-18
1.83322e-18
1.88781e-18
1.94399e-18
2.00179e-18
2.06126e-18
2.12245e-18
2.18541e-18
2.25018e-18
2.31682e-18
2.38539e-18
2.45593e-18
2.5285e-18
2.60316e-18
2.67997e-18
2.75899e-18
2.84028e-18
2.9239e-18
3.00992e-18
3.09842e-18
3.18945e-18
3.28309e-18
3.37941e-18
3.47849e-18
3.58041e-18
3.68524e-18
3.79306e-18
3.90397e-18
4.01804e-18
4.13537e-18
4.25604e-18
4.38015e-18
4.5078e-18
4.63908e-18
4.77409e-18
4.91294e-18
5.05574e-18
5.20259e-18
5.35361e-18
5.50891e-18
5.66861e-18
5.83283e-18
6.0017e-18
6.17535e-18
6.35391e-18
6.53751e-18
6.72629e-18
6.9204e-18
7.11998e-18
7.32518e-18
7.53616e-18
7.75307e-18
7.97608e-18
8.20535e-18
8.44106e-18
8.68339e-18
8.9325e-18
9.18859e-18
9.45185e-18
9.72247e-18
1.00007e-17
1.02866e-17
1.05805e-17
1.08827e-17
1.11932e-17
1.15124e-17
1.18405e-17
1.21777e-17
1.25242e-17
1.28804e-17
1.32464e-17
1.36226e-17
1.40092e-17
1.44065e-17
1.48147e-17
1.52343e-17
1.56654e-17
1.61083e-17
1.65635e-17
1.70312e-17
1.75118e-17
1.80055e-17
1.85129e-17
1.90341e-17
1.95695e-17
2.01197e-17
2.06848e-17
2.12654e-17
2.18618e-17
2.24745e-17
2.31038e-17
2.37503e-17
2.44143e-17
2.50964e-17
2.57969e-17
2.65164e-17
2.72553e-17
2.80142e-17
2.87936e-17
2.9594e-17
3.0416e-17
3.126e-17
3.21267e-17
3.30167e-17
3.39305e-17
3.48687e-17
3.58321e-17
3.68211e-17
3.78365e-17
3.88789e-17
3.99491e-17
4.10476e-17
4.21752e-17
4.33327e-17
4.45208e-17
4.57402e-17
4.69918e-17
4.82762e-17
4.95944e-17
5.09472e-17
5.23353e-17
5.37597e-17
5.52213e-17
5.67208e-17
5.82594e-17
5.98378e-17
6.14571e-17
6.31182e-17
6.48221e-17
6.65698e-17
6.83623e-17
7.02007e-17
7.20861e-17
7.40194e-17
7.60019e-17
7.80345e-17
8.01186e-17
8.22551e-17
8.44452e-17
8.66902e-17
8.89912e-17
9.13494e-17
9.3766e-17
9.62423e-17
9.87795e-17
1.01379e-16
1.04042e-16
1.06769e-16
1.09562e-16
1.12423e-16
1.15352e-16
1.18351e-16
1.2142e-16
1.24562e-16
1.27778e-16
1.31068e-16
1.34434e-16
1.37877e-16
1.41398e-16
1.44999e-16
1.4868e-16
1.52442e-16
1.56287e-16
1.60216e-16
1.64228e-16
1.68326e-16
1.72509e-16
1.76778e-16
1.81134e-16
1.85578e-16
1.90108e-16
1.94726e-16
1.99431e-16
2.04223e-16
2.09102e-16
2.14066e-16
2.19115e-16
2.24247e-16
2.29461e-16
2.34756e-16
2.40128e-16
2.45575e-16
2.51095e-16
2.56683e-16
2.62335e-16
2.68047e-16
2.73814e-16
2.7963e-16
2.85487e-16
2.91379e-16
2.97297e-16
3.03232e-16
3.09174e-16
3.1511e-16
3.21029e-16
3.26917e-16
3.32758e-16
3.38535e-16
3.44229e-16
3.4982e-16
3.55287e-16
3.60603e-16
3.65742e-16
3.70676e-16
3.75373e-16
3.79798e-16
3.83913e-16
3.8768e-16
3.91055e-16
3.93991e-16
3.96442e-16
3.98357e-16
3.99685e-16
4.00374e-16
2.27228e-23
7.28839e-23
1.28119e-22
1.88716e-22
2.5488e-22
3.2679e-22
4.0464e-22
4.88651e-22
5.7908e-22
6.76213e-22
7.80365e-22
8.9187e-22
1.01108e-21
1.13836e-21
1.2741e-21
1.41867e-21
1.57248e-21
1.73594e-21
1.90946e-21
2.09346e-21
2.28838e-21
2.49467e-21
2.71276e-21
2.94314e-21
3.18625e-21
3.4426e-21
3.71267e-21
3.99696e-21
4.296e-21
4.61031e-21
4.94043e-21
5.28692e-21
5.65035e-21
6.0313e-21
6.43035e-21
6.84814e-21
7.28527e-21
7.74239e-21
8.22015e-21
8.71924e-21
9.24033e-21
9.78414e-21
1.03514e-20
1.09428e-20
1.15592e-20
1.22013e-20
1.287e-20
1.3566e-20
1.42902e-20
1.50434e-20
1.58267e-20
1.66407e-20
1.74866e-20
1.83653e-20
1.92777e-20
2.02249e-20
2.12079e-20
2.22277e-20
2.32856e-20
2.43826e-20
2.55198e-20
2.66985e-20
2.79199e-20
2.91853e-20
3.04959e-20
3.1853e-20
3.32582e-20
3.47127e-20
3.62179e-20
3.77755e-20
3.93869e-20
4.10537e-20
4.27775e-20
4.456e-20
4.64029e-20
4.8308e-20
5.0277e-20
5.23119e-20
5.44145e-20
5.65868e-20
5.88309e-20
6.11489e-20
6.35428e-20
6.6015e-20
6.85676e-20
7.12031e-20
7.39238e-20
7.67323e-20
7.9631e-20
8.26227e-20
8.57099e-20
8.88956e-20
9.21825e-20
9.55736e-20
9.90719e-20
1.02681e-19
1.06403e-19
1.10242e-19
1.14202e-19
1.18285e-19
1.22495e-19
1.26837e-19
1.31314e-19
1.35929e-19
1.40688e-19
1.45593e-19
1.5065e-19
1.55863e-19
1.61235e-19
1.66773e-19
1.72481e-19
1.78363e-19
1.84425e-19
1.90672e-19
1.9711e-19
2.03743e-19
2.10578e-19
2.17621e-19
2.24878e-19
2.32354e-19
2.40056e-19
2.47991e-19
2.56166e-19
2.64587e-19
2.73262e-19
2.82198e-19
2.91403e-19
3.00885e-19
3.10651e-19
3.2071e-19
3.3107e-19
3.4174e-19
3.5273e-19
3.64048e-19
3.75703e-19
3.87707e-19
4.00069e-19
4.12799e-19
4.25908e-19
4.39406e-19
4.53307e-19
4.6762e-19
4.82358e-19
4.97533e-19
5.13158e-19
5.29247e-19
5.45811e-19
5.62866e-19
5.80425e-19
5.98503e-19
6.17115e-19
6.36277e-19
6.56004e-19
6.76312e-19
6.97219e-19
7.18742e-19
7.40898e-19
7.63706e-19
7.87185e-19
8.11354e-19
8.36232e-19
8.61842e-19
8.88202e-19
9.15335e-19
9.43264e-19
9.72011e-19
1.0016e-18
1.03205e-18
1.0634e-18
1.09566e-18
1.12887e-18
1.16304e-18
1.19821e-18
1.23441e-18
1.27166e-18
1.31e-18
1.34946e-18
1.39006e-18
1.43185e-18
1.47485e-18
1.5191e-18
1.56464e-18
1.6115e-18
1.65973e-18
1.70935e-18
1.76041e-18
1.81295e-18
1.86701e-18
1.92264e-18
1.97987e-18
2.03877e-18
2.09936e-18
2.16171e-18
2.22586e-18
2.29185e-18
2.35976e-18
2.42962e-18
2.5015e-18
2.57544e-18
2.65152e-18
2.72978e-18
2.81029e-18
2.89312e-18
2.97833e-18
3.06599e-18
3.15616e-18
3.24892e-18
3.34433e-18
3.44248e-18
3.54344e-18
3.64729e-18
3.75411e-18
3.86399e-18
3.977e-18
4.09324e-18
4.21279e-18
4.33576e-18
4.46223e-18
4.5923e-18
4.72608e-18
4.86366e-18
5.00515e-18
5.15066e-18
5.30031e-18
5.4542e-18
5.61246e-18
5.7752e-18
5.94255e-18
6.11464e-18
6.29159e-18
6.47355e-18
6.66065e-18
6.85303e-18
7.05084e-18
7.25422e-18
7.46334e-18
7.67834e-18
7.89939e-18
8.12666e-18
8.36031e-18
8.60052e-18
8.84747e-18
9.10134e-18
9.36233e-18
9.63062e-18
9.90641e-18
1.01899e-17
1.04813e-17
1.07809e-17
1.10888e-17
1.14053e-17
1.17306e-17
1.20649e-17
1.24086e-17
1.27617e-17
1.31247e-17
1.34978e-17
1.38812e-17
1.42752e-17
1.46801e-17
1.50962e-17
1.55237e-17
1.59631e-17
1.64146e-17
1.68785e-17
1.73552e-17
1.7845e-17
1.83482e-17
1.88653e-17
1.93965e-17
1.99422e-17
2.05029e-17
2.1079e-17
2.16707e-17
2.22786e-17
2.29031e-17
2.35445e-17
2.42034e-17
2.48803e-17
2.55754e-17
2.62895e-17
2.70228e-17
2.7776e-17
2.85496e-17
2.9344e-17
3.01598e-17
3.09976e-17
3.1858e-17
3.27414e-17
3.36486e-17
3.458e-17
3.55364e-17
3.65184e-17
3.75265e-17
3.85616e-17
3.96242e-17
4.0715e-17
4.18348e-17
4.29843e-17
4.41642e-17
4.53753e-17
4.66184e-17
4.78942e-17
4.92036e-17
5.05474e-17
5.19264e-17
5.33415e-17
5.47936e-17
5.62836e-17
5.78124e-17
5.93809e-17
6.099e-17
6.26409e-17
6.43343e-17
6.60715e-17
6.78533e-17
6.96808e-17
7.15551e-17
7.34773e-17
7.54484e-17
7.74697e-17
7.95421e-17
8.1667e-17
8.38453e-17
8.60785e-17
8.83675e-17
9.07137e-17
9.31182e-17
9.55824e-17
9.81075e-17
1.00695e-16
1.03345e-16
1.06061e-16
1.08842e-16
1.1169e-16
1.14608e-16
1.17595e-16
1.20653e-16
1.23784e-16
1.26988e-16
1.30267e-16
1.33623e-16
1.37056e-16
1.40568e-16
1.4416e-16
1.47833e-16
1.51588e-16
1.55426e-16
1.59349e-16
1.63357e-16
1.67451e-16
1.71631e-16
1.759e-16
1.80256e-16
1.84701e-16
1.89236e-16
1.9386e-16
1.98573e-16
2.03375e-16
2.08267e-16
2.13247e-16
2.18315e-16
2.2347e-16
2.28711e-16
2.34036e-16
2.39443e-16
2.44931e-16
2.50496e-16
2.56135e-16
2.61845e-16
2.67622e-16
2.73461e-16
2.79357e-16
2.85304e-16
2.91295e-16
2.97322e-16
3.03378e-16
3.09453e-16
3.15537e-16
3.21618e-16
3.27683e-16
3.33718e-16
3.39708e-16
3.45636e-16
3.51482e-16
3.57227e-16
3.62847e-16
3.68318e-16
3.73613e-16
3.78702e-16
3.83552e-16
3.88129e-16
3.92395e-16
3.96307e-16
3.99822e-16
4.0289e-16
4.05461e-16
4.0748e-16
4.08889e-16
4.09625e-16
2.23077e-23
7.15311e-23
1.25657e-22
1.85002e-22
2.4985e-22
3.20444e-22
3.97022e-22
4.79833e-22
5.69148e-22
6.65259e-22
7.68484e-22
8.79155e-22
9.97622e-22
1.12425e-21
1.25942e-21
1.40351e-21
1.55692e-21
1.72006e-21
1.89335e-21
2.07721e-21
2.27208e-21
2.47841e-21
2.69664e-21
2.92725e-21
3.17071e-21
3.42752e-21
3.69817e-21
3.98318e-21
4.28307e-21
4.59837e-21
4.92964e-21
5.27745e-21
5.64237e-21
6.02499e-21
6.42591e-21
6.84576e-21
7.28518e-21
7.74481e-21
8.22532e-21
8.72741e-21
9.25176e-21
9.79911e-21
1.03702e-20
1.09657e-20
1.15866e-20
1.22334e-20
1.29072e-20
1.36086e-20
1.43387e-20
1.50981e-20
1.5888e-20
1.67091e-20
1.75624e-20
1.8449e-20
1.93698e-20
2.03258e-20
2.13182e-20
2.23479e-20
2.34162e-20
2.45241e-20
2.56729e-20
2.68637e-20
2.80978e-20
2.93766e-20
3.07012e-20
3.20731e-20
3.34936e-20
3.49642e-20
3.64864e-20
3.80616e-20
3.96914e-20
4.13774e-20
4.31213e-20
4.49248e-20
4.67895e-20
4.87173e-20
5.07101e-20
5.27696e-20
5.4898e-20
5.70971e-20
5.9369e-20
6.17158e-20
6.41398e-20
6.66432e-20
6.92283e-20
7.18974e-20
7.46531e-20
7.74978e-20
8.04341e-20
8.34648e-20
8.65925e-20
8.982e-20
9.31503e-20
9.65864e-20
1.00131e-19
1.03788e-19
1.07561e-19
1.11451e-19
1.15464e-19
1.19603e-19
1.23871e-19
1.28272e-19
1.3281e-19
1.37489e-19
1.42312e-19
1.47286e-19
1.52412e-19
1.57697e-19
1.63145e-19
1.6876e-19
1.74547e-19
1.80511e-19
1.86659e-19
1.92993e-19
1.99522e-19
2.06249e-19
2.1318e-19
2.20323e-19
2.27682e-19
2.35264e-19
2.43076e-19
2.51124e-19
2.59415e-19
2.67957e-19
2.76756e-19
2.8582e-19
2.95157e-19
3.04775e-19
3.14681e-19
3.24884e-19
3.35394e-19
3.46218e-19
3.57366e-19
3.68848e-19
3.80672e-19
3.92849e-19
4.0539e-19
4.18305e-19
4.31604e-19
4.45299e-19
4.59401e-19
4.73922e-19
4.88875e-19
5.04271e-19
5.20124e-19
5.36447e-19
5.53253e-19
5.70557e-19
5.88373e-19
6.06716e-19
6.256e-19
6.45042e-19
6.65058e-19
6.85664e-19
7.06878e-19
7.28716e-19
7.51198e-19
7.74341e-19
7.98165e-19
8.22689e-19
8.47934e-19
8.7392e-19
9.00668e-19
9.28201e-19
9.56542e-19
9.85712e-19
1.01574e-18
1.04664e-18
1.07845e-18
1.11119e-18
1.14488e-18
1.17956e-18
1.21525e-18
1.25199e-18
1.28979e-18
1.3287e-18
1.36874e-18
1.40994e-18
1.45235e-18
1.49599e-18
1.5409e-18
1.58711e-18
1.63467e-18
1.6836e-18
1.73396e-18
1.78578e-18
1.8391e-18
1.89396e-18
1.95042e-18
2.0085e-18
2.06827e-18
2.12977e-18
2.19304e-18
2.25814e-18
2.32513e-18
2.39404e-18
2.46494e-18
2.53789e-18
2.61293e-18
2.69014e-18
2.76957e-18
2.85129e-18
2.93535e-18
3.02183e-18
3.11079e-18
3.20231e-18
3.29645e-18
3.39329e-18
3.49291e-18
3.59538e-18
3.70078e-18
3.8092e-18
3.92071e-18
4.03541e-18
4.15339e-18
4.27474e-18
4.39954e-18
4.5279e-18
4.65992e-18
4.7957e-18
4.93534e-18
5.07896e-18
5.22665e-18
5.37854e-18
5.53474e-18
5.69537e-18
5.86055e-18
6.03041e-18
6.20508e-18
6.3847e-18
6.56939e-18
6.7593e-18
6.95457e-18
7.15535e-18
7.36179e-18
7.57405e-18
7.79229e-18
8.01666e-18
8.24735e-18
8.48452e-18
8.72835e-18
8.97901e-18
9.23671e-18
9.50163e-18
9.77396e-18
1.00539e-17
1.03417e-17
1.06375e-17
1.09416e-17
1.12541e-17
1.15754e-17
1.19056e-17
1.2245e-17
1.25938e-17
1.29524e-17
1.33208e-17
1.36995e-17
1.40887e-17
1.44887e-17
1.48997e-17
1.53221e-17
1.57561e-17
1.62022e-17
1.66605e-17
1.71315e-17
1.76154e-17
1.81126e-17
1.86235e-17
1.91483e-17
1.96876e-17
2.02417e-17
2.08109e-17
2.13957e-17
2.19964e-17
2.26136e-17
2.32475e-17
2.38988e-17
2.45677e-17
2.52548e-17
2.59606e-17
2.66855e-17
2.743e-17
2.81947e-17
2.898e-17
2.97866e-17
3.06149e-17
3.14655e-17
3.2339e-17
3.32359e-17
3.41569e-17
3.51027e-17
3.60737e-17
3.70707e-17
3.80943e-17
3.91452e-17
4.0224e-17
4.13316e-17
4.24686e-17
4.36357e-17
4.48338e-17
4.60635e-17
4.73257e-17
4.86211e-17
4.99507e-17
5.13151e-17
5.27154e-17
5.41523e-17
5.56268e-17
5.71398e-17
5.86921e-17
6.02849e-17
6.19189e-17
6.35953e-17
6.53149e-17
6.7079e-17
6.88884e-17
7.07442e-17
7.26476e-17
7.45997e-17
7.66014e-17
7.86541e-17
8.07588e-17
8.29168e-17
8.51291e-17
8.73971e-17
8.97219e-17
9.21047e-17
9.45469e-17
9.70497e-17
9.96144e-17
1.02242e-16
1.04934e-16
1.07693e-16
1.10518e-16
1.13411e-16
1.16374e-16
1.19409e-16
1.22515e-16
1.25696e-16
1.28951e-16
1.32283e-16
1.35692e-16
1.3918e-16
1.42748e-16
1.46398e-16
1.5013e-16
1.53945e-16
1.57846e-16
1.61832e-16
1.65905e-16
1.70065e-16
1.74314e-16
1.78652e-16
1.8308e-16
1.87599e-16
1.92208e-16
1.96909e-16
2.01701e-16
2.06584e-16
2.11558e-16
2.16622e-16
2.21776e-16
2.2702e-16
2.32351e-16
2.37768e-16
2.43269e-16
2.48853e-16
2.54516e-16
2.60256e-16
2.66069e-16
2.7195e-16
2.77896e-16
2.83901e-16
2.89959e-16
2.96064e-16
3.02207e-16
3.08381e-16
3.14576e-16
3.20782e-16
3.26987e-16
3.33179e-16
3.39343e-16
3.45464e-16
3.51524e-16
3.57505e-16
3.63387e-16
3.69145e-16
3.74755e-16
3.80191e-16
3.85421e-16
3.90413e-16
3.95132e-16
3.99537e-16
4.03587e-16
4.07235e-16
4.10431e-16
4.13118e-16
4.15239e-16
4.16726e-16
4.17509e-16
2.19403e-23
7.03294e-23
1.23471e-22
1.81675e-22
2.45264e-22
3.14537e-22
3.8978e-22
4.71282e-22
5.5934e-22
6.54265e-22
7.5638e-22
8.66022e-22
9.83543e-22
1.1093e-21
1.24368e-21
1.38705e-21
1.53982e-21
1.70238e-21
1.87516e-21
2.05857e-21
2.25307e-21
2.45908e-21
2.67708e-21
2.90752e-21
3.15091e-21
3.40771e-21
3.67845e-21
3.96364e-21
4.26381e-21
4.57951e-21
4.91129e-21
5.25972e-21
5.62539e-21
6.00889e-21
6.41085e-21
6.83188e-21
7.27265e-21
7.7338e-21
8.21601e-21
8.71998e-21
9.24642e-21
9.79606e-21
1.03696e-20
1.09679e-20
1.15917e-20
1.22418e-20
1.29191e-20
1.36243e-20
1.43584e-20
1.51222e-20
1.59167e-20
1.67428e-20
1.76014e-20
1.84937e-20
1.94205e-20
2.03829e-20
2.1382e-20
2.24189e-20
2.34948e-20
2.46107e-20
2.5768e-20
2.69678e-20
2.82113e-20
2.94999e-20
3.0835e-20
3.22178e-20
3.36498e-20
3.51325e-20
3.66672e-20
3.82557e-20
3.98994e-20
4.15999e-20
4.33589e-20
4.51782e-20
4.70595e-20
4.90045e-20
5.10152e-20
5.30936e-20
5.52414e-20
5.74609e-20
5.9754e-20
6.21229e-20
6.45698e-20
6.70971e-20
6.9707e-20
7.24019e-20
7.51843e-20
7.80568e-20
8.1022e-20
8.40826e-20
8.72414e-20
9.05011e-20
9.38649e-20
9.73356e-20
1.00916e-19
1.04611e-19
1.08421e-19
1.12352e-19
1.16406e-19
1.20588e-19
1.249e-19
1.29347e-19
1.33932e-19
1.3866e-19
1.43534e-19
1.4856e-19
1.53741e-19
1.59082e-19
1.64587e-19
1.70262e-19
1.76111e-19
1.82139e-19
1.88352e-19
1.94755e-19
2.01354e-19
2.08154e-19
2.1516e-19
2.2238e-19
2.29819e-19
2.37484e-19
2.45381e-19
2.53517e-19
2.61899e-19
2.70534e-19
2.7943e-19
2.88594e-19
2.98033e-19
3.07757e-19
3.17772e-19
3.28089e-19
3.38714e-19
3.49658e-19
3.6093e-19
3.72539e-19
3.84495e-19
3.96808e-19
4.09488e-19
4.22546e-19
4.35994e-19
4.49842e-19
4.64102e-19
4.78785e-19
4.93906e-19
5.09474e-19
5.25505e-19
5.42011e-19
5.59007e-19
5.76505e-19
5.94521e-19
6.1307e-19
6.32167e-19
6.51829e-19
6.7207e-19
6.92909e-19
7.14362e-19
7.36447e-19
7.59183e-19
7.82588e-19
8.06682e-19
8.31483e-19
8.57014e-19
8.83295e-19
9.10347e-19
9.38192e-19
9.66854e-19
9.96356e-19
1.02672e-18
1.05798e-18
1.09015e-18
1.12326e-18
1.15734e-18
1.19241e-18
1.22851e-18
1.26566e-18
1.3039e-18
1.34325e-18
1.38374e-18
1.42542e-18
1.46831e-18
1.51245e-18
1.55787e-18
1.60461e-18
1.65271e-18
1.70221e-18
1.75314e-18
1.80555e-18
1.85948e-18
1.91498e-18
1.97208e-18
2.03083e-18
2.09128e-18
2.15349e-18
2.21749e-18
2.28334e-18
2.35109e-18
2.42079e-18
2.49251e-18
2.56629e-18
2.6422e-18
2.7203e-18
2.80064e-18
2.8833e-18
2.96833e-18
3.05581e-18
3.1458e-18
3.23837e-18
3.33359e-18
3.43155e-18
3.53232e-18
3.63597e-18
3.74258e-18
3.85225e-18
3.96506e-18
4.08108e-18
4.20042e-18
4.32317e-18
4.44942e-18
4.57927e-18
4.71281e-18
4.85016e-18
4.99142e-18
5.1367e-18
5.2861e-18
5.43975e-18
5.59776e-18
5.76025e-18
5.92735e-18
6.09918e-18
6.27588e-18
6.45758e-18
6.64442e-18
6.83653e-18
7.03407e-18
7.23719e-18
7.44603e-18
7.66076e-18
7.88153e-18
8.10852e-18
8.34189e-18
8.58182e-18
8.82849e-18
9.08208e-18
9.34278e-18
9.61079e-18
9.8863e-18
1.01695e-17
1.04607e-17
1.07599e-17
1.10675e-17
1.13838e-17
1.17088e-17
1.20428e-17
1.23862e-17
1.27391e-17
1.31018e-17
1.34746e-17
1.38578e-17
1.42515e-17
1.46562e-17
1.5072e-17
1.54993e-17
1.59385e-17
1.63898e-17
1.68535e-17
1.733e-17
1.78195e-17
1.83226e-17
1.88395e-17
1.93706e-17
1.99162e-17
2.04768e-17
2.10527e-17
2.16444e-17
2.22522e-17
2.28766e-17
2.35181e-17
2.4177e-17
2.48538e-17
2.5549e-17
2.62631e-17
2.69966e-17
2.775e-17
2.85237e-17
2.93183e-17
3.01344e-17
3.09726e-17
3.18332e-17
3.27171e-17
3.36247e-17
3.45566e-17
3.55136e-17
3.64962e-17
3.7505e-17
3.85408e-17
3.96042e-17
4.06959e-17
4.18167e-17
4.29672e-17
4.41483e-17
4.53606e-17
4.6605e-17
4.78823e-17
4.91932e-17
5.05387e-17
5.19195e-17
5.33366e-17
5.47907e-17
5.62829e-17
5.7814e-17
5.9385e-17
6.09969e-17
6.26506e-17
6.43471e-17
6.60875e-17
6.78728e-17
6.97041e-17
7.15824e-17
7.35088e-17
7.54844e-17
7.75105e-17
7.9588e-17
8.17183e-17
8.39025e-17
8.61417e-17
8.84373e-17
9.07904e-17
9.32024e-17
9.56744e-17
9.82078e-17
1.00804e-16
1.03464e-16
1.06189e-16
1.08981e-16
1.11841e-16
1.1477e-16
1.1777e-16
1.20842e-16
1.23987e-16
1.27207e-16
1.30503e-16
1.33877e-16
1.37328e-16
1.4086e-16
1.44473e-16
1.48169e-16
1.51948e-16
1.55812e-16
1.59761e-16
1.63798e-16
1.67923e-16
1.72137e-16
1.76441e-16
1.80835e-16
1.85321e-16
1.89898e-16
1.94568e-16
1.9933e-16
2.04185e-16
2.09133e-16
2.14174e-16
2.19306e-16
2.2453e-16
2.29844e-16
2.35248e-16
2.4074e-16
2.46318e-16
2.5198e-16
2.57724e-16
2.63545e-16
2.69442e-16
2.7541e-16
2.81443e-16
2.87538e-16
2.93688e-16
2.99886e-16
3.06126e-16
3.12397e-16
3.18693e-16
3.25001e-16
3.3131e-16
3.37608e-16
3.43881e-16
3.50113e-16
3.56286e-16
3.62383e-16
3.68381e-16
3.74258e-16
3.7999e-16
3.85548e-16
3.90902e-16
3.96019e-16
4.00863e-16
4.05394e-16
4.09568e-16
4.13336e-16
4.16647e-16
4.19441e-16
4.21654e-16
4.23215e-16
4.24041e-16
2.16325e-23
6.9322e-23
1.2164e-22
1.7888e-22
2.41378e-22
3.0947e-22
3.83484e-22
4.63749e-22
5.50592e-22
6.44345e-22
7.45346e-22
8.53939e-22
9.70478e-22
1.09532e-21
1.22885e-21
1.37143e-21
1.52347e-21
1.68535e-21
1.8575e-21
2.04035e-21
2.23431e-21
2.43986e-21
2.65743e-21
2.88751e-21
3.13058e-21
3.38713e-21
3.65768e-21
3.94274e-21
4.24286e-21
4.55858e-21
4.89045e-21
5.23907e-21
5.60502e-21
5.9889e-21
6.39134e-21
6.81297e-21
7.25444e-21
7.71642e-21
8.1996e-21
8.70467e-21
9.23236e-21
9.7834e-21
1.03586e-20
1.09586e-20
1.15843e-20
1.22365e-20
1.2916e-20
1.36237e-20
1.43605e-20
1.51273e-20
1.59249e-20
1.67544e-20
1.76167e-20
1.85128e-20
1.94438e-20
2.04107e-20
2.14145e-20
2.24565e-20
2.35377e-20
2.46594e-20
2.58226e-20
2.70288e-20
2.8279e-20
2.95748e-20
3.09173e-20
3.2308e-20
3.37483e-20