/*--------------------------------*- C++ -*----------------------------------*\
  =========                 |
  \\      /  F ield         | OpenFOAM: The Open Source CFD Toolbox
   \\    /   O peration     | Website:  https://openfoam.org
    \\  /    A nd           | Version:  dev
     \\/     M anipulation  |
\*---------------------------------------------------------------------------*/
FoamFile
{
    format      ascii;
    class       volScalarField;
    location    "0.12";
    object      beta;
}
// * * * * * * * * * * * * * * * * * * * * * * * * * * * * * * * * * * * * * //

dimensions      [0 0 0 0 0 0 0];

internalField   uniform 0;

boundaryField
{
    frontAndBack
    {
        type            empty;
    }
    inlet
    {
        type            calculated;
        value           uniform 0;
    }
    outlet
    {
        type            calculated;
        value           uniform 0;
    }
    substrate
    {
        type            calculated;
        value           nonuniform List<scalar> 
400
(
0.00312031
0.00329117
0.00342426
0.00354854
0.00366821
0.00378361
0.0038957
0.00400537
0.00411323
0.0042197
0.0043251
0.00442969
0.00453362
0.00463702
0.00473999
0.00484256
0.00494476
0.00504661
0.00514808
0.00524914
0.00534977
0.00544991
0.00554951
0.00564852
0.00574689
0.00584454
0.00594142
0.00603748
0.00613264
0.00622687
0.00632009
0.00641227
0.00650334
0.00659326
0.00668199
0.00676949
0.00685571
0.00694063
0.0070242
0.00710641
0.00718722
0.00726661
0.00734457
0.00742107
0.0074961
0.00756966
0.00764173
0.0077123
0.00778137
0.00784895
0.00791503
0.00797961
0.00804271
0.00810432
0.00816446
0.00822313
0.00828036
0.00833614
0.00839051
0.00844346
0.00849503
0.00854522
0.00859406
0.00864157
0.00868777
0.00873267
0.00877631
0.00881869
0.00885985
0.00889981
0.0089386
0.00897622
0.00901272
0.00904811
0.00908242
0.00911566
0.00914788
0.00917908
0.00920929
0.00923854
0.00926685
0.00929425
0.00932075
0.00934638
0.00937116
0.00939512
0.00941827
0.00944065
0.00946226
0.00948313
0.00950329
0.00952275
0.00954153
0.00955965
0.00957713
0.009594
0.00961026
0.00962594
0.00964105
0.00965562
0.00966966
0.00968318
0.0096962
0.00970874
0.00972082
0.00973244
0.00974362
0.00975439
0.00976474
0.0097747
0.00978427
0.00979348
0.00980233
0.00981084
0.00981901
0.00982686
0.0098344
0.00984164
0.0098486
0.00985527
0.00986168
0.00986783
0.00987372
0.00987938
0.00988481
0.00989001
0.00989499
0.00989977
0.00990435
0.00990874
0.00991295
0.00991697
0.00992082
0.00992451
0.00992805
0.00993143
0.00993466
0.00993775
0.00994071
0.00994354
0.00994624
0.00994883
0.0099513
0.00995366
0.00995591
0.00995807
0.00996012
0.00996208
0.00996396
0.00996575
0.00996745
0.00996908
0.00997063
0.00997211
0.00997352
0.00997486
0.00997614
0.00997736
0.00997853
0.00997963
0.00998069
0.00998169
0.00998264
0.00998355
0.00998442
0.00998524
0.00998602
0.00998676
0.00998747
0.00998814
0.00998878
0.00998938
0.00998996
0.00999051
0.00999102
0.00999152
0.00999198
0.00999242
0.00999284
0.00999324
0.00999362
0.00999398
0.00999432
0.00999464
0.00999494
0.00999523
0.0099955
0.00999576
0.009996
0.00999624
0.00999645
0.00999666
0.00999686
0.00999704
0.00999721
0.00999738
0.00999753
0.00999768
0.00999782
0.00999795
0.00999807
0.00999819
0.0099983
0.0099984
0.0099985
0.00999859
0.00999868
0.00999876
0.00999884
0.00999891
0.00999898
0.00999904
0.0099991
0.00999916
0.00999921
0.00999926
0.00999931
0.00999936
0.0099994
0.00999944
0.00999947
0.00999951
0.00999954
0.00999957
0.0099996
0.00999962
0.00999965
0.00999967
0.00999969
0.00999972
0.00999973
0.00999975
0.00999977
0.00999978
0.0099998
0.00999981
0.00999983
0.00999984
0.00999985
0.00999986
0.00999987
0.00999988
0.00999989
0.0099999
0.0099999
0.00999991
0.00999992
0.00999992
0.00999993
0.00999993
0.00999994
0.00999994
0.00999995
0.00999995
0.00999995
0.00999996
0.00999996
0.00999996
0.00999997
0.00999997
0.00999997
0.00999997
0.00999998
0.00999998
0.00999998
0.00999998
0.00999998
0.00999998
0.00999998
0.00999999
0.00999999
0.00999999
0.00999999
0.00999999
0.00999999
0.00999999
0.00999999
0.00999999
0.00999999
0.00999999
0.00999999
0.00999999
0.01
0.01
0.01
0.01
0.01
0.01
0.01
0.01
0.01
0.01
0.01
0.01
0.01
0.01
0.01
0.01
0.01
0.01
0.01
0.01
0.01
0.01
0.01
0.01
0.01
0.01
0.01
0.01
0.01
0.01
0.01
0.01
0.01
0.01
0.01
0.01
0.01
0.01
0.01
0.01
0.01
0.01
0.01
0.01
0.01
0.01
0.01
0.01
0.01
0.01
0.01
0.01
0.01
0.01
0.01
0.01
0.01
0.01
0.01
0.01
0.01
0.01
0.01
0.01
0.01
0.01
0.01
0.01
0.01
0.01
0.01
0.01
0.01
0.01
0.01
0.01
0.01
0.01
0.01
0.01
0.01
0.01
0.01
0.01
0.01
0.01
0.01
0.01
0.01
0.01
0.01
0.01
0.01
0.01
0.01
0.01
0.01
0.01
0.01
0.01
0.01
0.01
0.01
0.01
0.01
0.01
0.01
0.01
0.01
0.01
0.01
0.01
0.01
0.01
0.01
0.01
0.01
0.01
)
;
    }
    Wall
    {
        type            calculated;
        value           nonuniform List<scalar> 
400
(
0.00312031
0.00329117
0.00342425
0.00354854
0.00366821
0.0037836
0.0038957
0.00400537
0.00411322
0.00421969
0.0043251
0.00442967
0.0045336
0.004637
0.00473996
0.00484253
0.00494473
0.00504657
0.00514804
0.0052491
0.00534972
0.00544986
0.00554946
0.00564847
0.00574682
0.00584447
0.00594135
0.00603741
0.00613257
0.0062268
0.00632002
0.00641219
0.00650326
0.00659319
0.00668192
0.00676941
0.00685563
0.00694055
0.00702412
0.00710633
0.00718714
0.00726653
0.00734449
0.00742099
0.00749603
0.00756958
0.00764165
0.00771222
0.0077813
0.00784888
0.00791496
0.00797954
0.00804264
0.00810425
0.00816439
0.00822307
0.00828029
0.00833608
0.00839044
0.0084434
0.00849497
0.00854516
0.00859401
0.00864151
0.00868771
0.00873262
0.00877625
0.00881864
0.0088598
0.00889976
0.00893855
0.00897617
0.00901267
0.00904806
0.00908237
0.00911562
0.00914783
0.00917904
0.00920925
0.0092385
0.00926681
0.00929421
0.00932071
0.00934634
0.00937113
0.00939509
0.00941824
0.00944061
0.00946223
0.0094831
0.00950326
0.00952272
0.0095415
0.00955962
0.00957711
0.00959397
0.00961024
0.00962592
0.00964103
0.0096556
0.00966963
0.00968316
0.00969618
0.00970872
0.0097208
0.00973242
0.00974361
0.00975437
0.00976472
0.00977468
0.00978426
0.00979347
0.00980232
0.00981082
0.009819
0.00982685
0.00983439
0.00984163
0.00984859
0.00985526
0.00986167
0.00986782
0.00987371
0.00987937
0.0098848
0.00989
0.00989499
0.00989977
0.00990435
0.00990873
0.00991294
0.00991696
0.00992082
0.00992451
0.00992804
0.00993142
0.00993465
0.00993775
0.00994071
0.00994353
0.00994624
0.00994882
0.00995129
0.00995365
0.00995591
0.00995806
0.00996012
0.00996208
0.00996395
0.00996574
0.00996745
0.00996907
0.00997063
0.00997211
0.00997352
0.00997486
0.00997614
0.00997736
0.00997852
0.00997963
0.00998068
0.00998169
0.00998264
0.00998355
0.00998442
0.00998524
0.00998602
0.00998676
0.00998747
0.00998814
0.00998878
0.00998938
0.00998996
0.0099905
0.00999102
0.00999151
0.00999198
0.00999242
0.00999284
0.00999324
0.00999362
0.00999398
0.00999432
0.00999464
0.00999494
0.00999523
0.0099955
0.00999576
0.009996
0.00999623
0.00999645
0.00999666
0.00999685
0.00999704
0.00999721
0.00999738
0.00999753
0.00999768
0.00999782
0.00999795
0.00999807
0.00999819
0.0099983
0.0099984
0.0099985
0.00999859
0.00999868
0.00999876
0.00999884
0.00999891
0.00999898
0.00999904
0.0099991
0.00999916
0.00999921
0.00999926
0.00999931
0.00999936
0.0099994
0.00999944
0.00999947
0.00999951
0.00999954
0.00999957
0.0099996
0.00999962
0.00999965
0.00999967
0.00999969
0.00999972
0.00999973
0.00999975
0.00999977
0.00999978
0.0099998
0.00999981
0.00999983
0.00999984
0.00999985
0.00999986
0.00999987
0.00999988
0.00999989
0.0099999
0.0099999
0.00999991
0.00999992
0.00999992
0.00999993
0.00999993
0.00999994
0.00999994
0.00999995
0.00999995
0.00999995
0.00999996
0.00999996
0.00999996
0.00999997
0.00999997
0.00999997
0.00999997
0.00999998
0.00999998
0.00999998
0.00999998
0.00999998
0.00999998
0.00999998
0.00999999
0.00999999
0.00999999
0.00999999
0.00999999
0.00999999
0.00999999
0.00999999
0.00999999
0.00999999
0.00999999
0.00999999
0.00999999
0.01
0.01
0.01
0.01
0.01
0.01
0.01
0.01
0.01
0.01
0.01
0.01
0.01
0.01
0.01
0.01
0.01
0.01
0.01
0.01
0.01
0.01
0.01
0.01
0.01
0.01
0.01
0.01
0.01
0.01
0.01
0.01
0.01
0.01
0.01
0.01
0.01
0.01
0.01
0.01
0.01
0.01
0.01
0.01
0.01
0.01
0.01
0.01
0.01
0.01
0.01
0.01
0.01
0.01
0.01
0.01
0.01
0.01
0.01
0.01
0.01
0.01
0.01
0.01
0.01
0.01
0.01
0.01
0.01
0.01
0.01
0.01
0.01
0.01
0.01
0.01
0.01
0.01
0.01
0.01
0.01
0.01
0.01
0.01
0.01
0.01
0.01
0.01
0.01
0.01
0.01
0.01
0.01
0.01
0.01
0.01
0.01
0.01
0.01
0.01
0.01
0.01
0.01
0.01
0.01
0.01
0.01
0.01
0.01
0.01
0.01
0.01
0.01
0.01
0.01
0.01
0.01
0.01
)
;
    }
}


// ************************************************************************* //
