/*--------------------------------*- C++ -*----------------------------------*\
  =========                 |
  \\      /  F ield         | OpenFOAM: The Open Source CFD Toolbox
   \\    /   O peration     | Website:  https://openfoam.org
    \\  /    A nd           | Version:  dev
     \\/     M anipulation  |
\*---------------------------------------------------------------------------*/
FoamFile
{
    format      ascii;
    class       volScalarField;
    location    "0.12";
    object      Exp1;
}
// * * * * * * * * * * * * * * * * * * * * * * * * * * * * * * * * * * * * * //

dimensions      [0 0 0 0 0 0 0];

internalField   uniform 0;

boundaryField
{
    frontAndBack
    {
        type            empty;
    }
    inlet
    {
        type            calculated;
        value           uniform 0;
    }
    outlet
    {
        type            calculated;
        value           uniform 0;
    }
    substrate
    {
        type            calculated;
        value           nonuniform List<scalar> 
400
(
0.0790184
0.0786197
0.0788141
0.079031
0.0792
0.0793302
0.0794128
0.0794385
0.0794028
0.0793034
0.0791389
0.0789096
0.0786163
0.0782602
0.0778429
0.0773664
0.0768328
0.0762443
0.0756033
0.0749124
0.074174
0.0733909
0.0725656
0.0717011
0.0707999
0.0698647
0.0688985
0.0679037
0.0668832
0.0658395
0.0647752
0.0636929
0.062595
0.0614839
0.0603619
0.0592313
0.0580941
0.0569524
0.0558082
0.0546634
0.0535196
0.0523787
0.051242
0.0501112
0.0489875
0.0478722
0.0467666
0.0456716
0.0445883
0.0435176
0.0424602
0.041417
0.0403885
0.0393754
0.0383781
0.037397
0.0364326
0.0354852
0.0345549
0.033642
0.0327467
0.0318689
0.0310089
0.0301666
0.0293419
0.0285349
0.0277454
0.0269733
0.0262185
0.0254809
0.0247602
0.0240563
0.0233689
0.0226979
0.022043
0.0214039
0.0207805
0.0201724
0.0195793
0.0190011
0.0184374
0.017888
0.0173526
0.0168309
0.0163227
0.0158277
0.0153455
0.014876
0.0144188
0.0139738
0.0135405
0.0131189
0.0127086
0.0123093
0.0119209
0.011543
0.0111755
0.0108181
0.0104705
0.0101326
0.00980404
0.00948471
0.00917436
0.00887278
0.00857974
0.00829506
0.00801854
0.00774996
0.00748916
0.00723593
0.00699009
0.00675146
0.00651986
0.00629513
0.00607709
0.00586557
0.00566042
0.00546146
0.00526856
0.00508155
0.00490028
0.00472461
0.00455439
0.00438949
0.00422976
0.00407507
0.00392529
0.00378029
0.00363994
0.00350412
0.00337271
0.00324558
0.00312263
0.00300374
0.00288879
0.00277768
0.0026703
0.00256655
0.00246632
0.00236952
0.00227605
0.0021858
0.0020987
0.00201464
0.00193354
0.00185531
0.00177987
0.00170712
0.001637
0.00156942
0.0015043
0.00144157
0.00138116
0.00132298
0.00126698
0.00121307
0.00116121
0.00111131
0.00106332
0.00101717
0.000972805
0.000930165
0.000889192
0.00084983
0.000812025
0.000775724
0.000740875
0.000707428
0.000675335
0.000644547
0.00061502
0.000586708
0.000559568
0.000533558
0.000508637
0.000484765
0.000461903
0.000440014
0.000419063
0.000399013
0.000379831
0.000361484
0.00034394
0.000327167
0.000311137
0.00029582
0.000281187
0.000267213
0.00025387
0.000241134
0.00022898
0.000217384
0.000206324
0.000195777
0.000185723
0.00017614
0.00016701
0.000158313
0.00015003
0.000142144
0.000134638
0.000127495
0.000120701
0.000114238
0.000108094
0.000102253
9.67028e-05
9.14296e-05
8.64211e-05
8.16654e-05
7.7151e-05
7.28666e-05
6.88018e-05
6.49463e-05
6.12904e-05
5.78247e-05
5.45402e-05
5.14283e-05
4.84807e-05
4.56896e-05
4.30473e-05
4.05467e-05
3.81809e-05
3.59431e-05
3.38271e-05
3.18267e-05
2.99363e-05
2.81503e-05
2.64634e-05
2.48706e-05
2.33671e-05
2.19482e-05
2.06096e-05
1.93471e-05
1.81567e-05
1.70347e-05
1.59775e-05
1.49815e-05
1.40435e-05
1.31605e-05
1.23293e-05
1.15473e-05
1.08118e-05
1.01201e-05
9.46984e-06
8.85878e-06
8.28469e-06
7.74551e-06
7.23926e-06
6.76408e-06
6.31821e-06
5.89995e-06
5.50773e-06
5.14003e-06
4.79543e-06
4.47258e-06
4.1702e-06
3.88708e-06
3.62208e-06
3.37411e-06
3.14215e-06
2.92524e-06
2.72247e-06
2.53298e-06
2.35594e-06
2.1906e-06
2.03623e-06
1.89215e-06
1.75772e-06
1.63233e-06
1.51541e-06
1.40642e-06
1.30486e-06
1.21026e-06
1.12216e-06
1.04014e-06
9.63814e-07
8.92806e-07
8.26766e-07
7.65368e-07
7.08303e-07
6.55284e-07
6.0604e-07
5.60317e-07
5.17877e-07
4.78498e-07
4.41971e-07
4.08101e-07
3.76704e-07
3.47611e-07
3.20661e-07
2.95704e-07
2.72601e-07
2.51222e-07
2.31443e-07
2.13153e-07
1.96243e-07
1.80616e-07
1.66179e-07
1.52846e-07
1.40537e-07
1.29176e-07
1.18695e-07
1.09028e-07
1.00115e-07
9.19007e-08
8.43324e-08
7.73618e-08
7.09438e-08
6.50366e-08
5.96015e-08
5.46025e-08
5.00061e-08
4.57814e-08
4.18996e-08
3.83341e-08
3.50603e-08
3.20554e-08
2.92982e-08
2.67692e-08
2.44503e-08
2.23248e-08
2.03772e-08
1.85932e-08
1.69597e-08
1.54645e-08
1.40964e-08
1.2845e-08
1.17007e-08
1.06548e-08
9.69903e-09
8.82603e-09
8.0289e-09
7.30128e-09
6.63735e-09
6.03174e-09
5.47953e-09
4.97618e-09
4.51754e-09
4.09976e-09
3.71936e-09
3.3731e-09
3.05804e-09
2.77145e-09
2.51087e-09
2.27401e-09
2.05879e-09
1.8633e-09
1.6858e-09
1.52468e-09
1.37849e-09
1.24589e-09
1.12566e-09
1.01668e-09
9.17937e-10
8.285e-10
7.4752e-10
6.74224e-10
6.07905e-10
5.47921e-10
4.93686e-10
4.44666e-10
4.00376e-10
3.60373e-10
3.24255e-10
2.91656e-10
2.62244e-10
2.35718e-10
2.11801e-10
1.90246e-10
1.70826e-10
1.53336e-10
1.37589e-10
1.23418e-10
1.1067e-10
9.92047e-11
8.88986e-11
7.96377e-11
7.13196e-11
6.38516e-11
5.71501e-11
5.11395e-11
4.5752e-11
4.09261e-11
3.66071e-11
3.27456e-11
2.92974e-11
2.62236e-11
2.34892e-11
2.10638e-11
1.89208e-11
1.70376e-11
1.53949e-11
1.39771e-11
1.27723e-11
1.17717e-11
1.097e-11
1.03651e-11
9.95818e-12
9.75244e-12
)
;
    }
    Wall
    {
        type            calculated;
        value           nonuniform List<scalar> 
400
(
0.0790181
0.0786191
0.0788147
0.0790317
0.0792
0.0793294
0.0794113
0.0794365
0.0794003
0.0793006
0.0791359
0.0789064
0.078613
0.0782568
0.0778396
0.0773631
0.0768295
0.0762411
0.0756002
0.0749093
0.074171
0.073388
0.0725629
0.0716985
0.0707974
0.0698624
0.0688963
0.0679017
0.0668813
0.0658378
0.0647736
0.0636915
0.0625937
0.0614827
0.0603609
0.0592303
0.0580932
0.0569517
0.0558076
0.0546629
0.0535192
0.0523784
0.0512418
0.050111
0.0489874
0.0478722
0.0467667
0.0456717
0.0445885
0.0435178
0.0424605
0.0414173
0.0403889
0.0393758
0.0383785
0.0373975
0.0364331
0.0354857
0.0345555
0.0336426
0.0327472
0.0318695
0.0310095
0.0301672
0.0293425
0.0285355
0.027746
0.0269739
0.0262192
0.0254815
0.0247609
0.024057
0.0233696
0.0226986
0.0220436
0.0214046
0.0207811
0.020173
0.0195799
0.0190017
0.018438
0.0178886
0.0173532
0.0168315
0.0163233
0.0158282
0.015346
0.0148765
0.0144193
0.0139743
0.013541
0.0131194
0.0127091
0.0123098
0.0119213
0.0115435
0.0111759
0.0108185
0.0104709
0.010133
0.00980446
0.00948512
0.00917477
0.00887317
0.00858013
0.00829545
0.00801891
0.00775033
0.00748952
0.00723628
0.00699043
0.0067518
0.0065202
0.00629546
0.00607741
0.00586589
0.00566073
0.00546177
0.00526886
0.00508184
0.00490057
0.00472489
0.00455467
0.00438976
0.00423002
0.00407533
0.00392554
0.00378054
0.00364018
0.00350436
0.00337294
0.00324581
0.00312285
0.00300395
0.002889
0.00277788
0.0026705
0.00256674
0.00246651
0.00236971
0.00227623
0.00218598
0.00209887
0.00201481
0.0019337
0.00185547
0.00178002
0.00170727
0.00163715
0.00156956
0.00150444
0.00144171
0.00138129
0.00132311
0.0012671
0.00121319
0.00116132
0.00111142
0.00106343
0.00101727
0.000972907
0.000930264
0.000889288
0.000849923
0.000812115
0.000775811
0.000740959
0.00070751
0.000675414
0.000644624
0.000615094
0.000586779
0.000559637
0.000533625
0.000508701
0.000484826
0.000461963
0.000440072
0.000419118
0.000399067
0.000379883
0.000361534
0.000343987
0.000327213
0.000311181
0.000295862
0.000281228
0.000267252
0.000253908
0.000241171
0.000229015
0.000217418
0.000206356
0.000195808
0.000185753
0.000176169
0.000167037
0.000158339
0.000150055
0.000142168
0.000134661
0.000127518
0.000120722
0.000114259
0.000108113
0.000102272
9.67205e-05
9.14466e-05
8.64374e-05
8.16809e-05
7.71658e-05
7.28808e-05
6.88153e-05
6.49592e-05
6.13027e-05
5.78364e-05
5.45514e-05
5.14389e-05
4.84909e-05
4.56993e-05
4.30566e-05
4.05555e-05
3.81892e-05
3.5951e-05
3.38346e-05
3.18339e-05
2.99432e-05
2.81568e-05
2.64696e-05
2.48765e-05
2.33726e-05
2.19534e-05
2.06146e-05
1.93518e-05
1.81612e-05
1.7039e-05
1.59815e-05
1.49853e-05
1.40472e-05
1.31639e-05
1.23326e-05
1.15504e-05
1.08147e-05
1.01228e-05
9.47245e-06
8.86124e-06
8.28701e-06
7.7477e-06
7.24133e-06
6.76604e-06
6.32005e-06
5.90169e-06
5.50937e-06
5.14158e-06
4.79689e-06
4.47395e-06
4.17149e-06
3.8883e-06
3.62322e-06
3.37518e-06
3.14316e-06
2.9262e-06
2.72337e-06
2.53382e-06
2.35673e-06
2.19134e-06
2.03693e-06
1.8928e-06
1.75833e-06
1.6329e-06
1.51595e-06
1.40692e-06
1.30533e-06
1.2107e-06
1.12257e-06
1.04053e-06
9.64177e-07
8.93145e-07
8.27083e-07
7.65663e-07
7.08579e-07
6.55542e-07
6.06281e-07
5.60541e-07
5.18086e-07
4.78693e-07
4.42153e-07
4.0827e-07
3.76863e-07
3.47758e-07
3.20798e-07
2.95832e-07
2.7272e-07
2.51332e-07
2.31546e-07
2.13248e-07
1.96332e-07
1.80699e-07
1.66256e-07
1.52917e-07
1.40602e-07
1.29237e-07
1.18751e-07
1.0908e-07
1.00164e-07
9.19457e-08
8.43741e-08
7.74003e-08
7.09794e-08
6.50696e-08
5.9632e-08
5.46307e-08
5.00321e-08
4.58054e-08
4.19218e-08
3.83546e-08
3.50792e-08
3.20728e-08
2.93143e-08
2.6784e-08
2.44639e-08
2.23373e-08
2.03887e-08
1.86039e-08
1.69695e-08
1.54735e-08
1.41047e-08
1.28526e-08
1.17077e-08
1.06612e-08
9.70491e-09
8.83143e-09
8.03385e-09
7.30582e-09
6.64151e-09
6.03555e-09
5.48302e-09
4.97938e-09
4.52046e-09
4.10244e-09
3.72181e-09
3.37534e-09
3.06008e-09
2.77332e-09
2.51257e-09
2.27557e-09
2.06021e-09
1.8646e-09
1.68698e-09
1.52576e-09
1.37947e-09
1.24678e-09
1.12647e-09
1.01742e-09
9.18612e-10
8.29114e-10
7.48078e-10
6.74731e-10
6.08366e-10
5.4834e-10
4.94066e-10
4.45011e-10
4.00689e-10
3.60656e-10
3.24512e-10
2.91889e-10
2.62456e-10
2.35909e-10
2.11974e-10
1.90403e-10
1.70968e-10
1.53464e-10
1.37705e-10
1.23523e-10
1.10764e-10
9.92902e-11
8.89757e-11
7.97073e-11
7.13824e-11
6.39082e-11
5.72011e-11
5.11855e-11
4.57934e-11
4.09635e-11
3.66407e-11
3.27759e-11
2.93247e-11
2.62481e-11
2.35113e-11
2.10838e-11
1.89389e-11
1.70539e-11
1.54097e-11
1.39907e-11
1.27848e-11
1.17833e-11
1.09809e-11
1.03754e-11
9.96745e-12
9.76105e-12
)
;
    }
}


// ************************************************************************* //
