/*--------------------------------*- C++ -*----------------------------------*\
  =========                 |
  \\      /  F ield         | OpenFOAM: The Open Source CFD Toolbox
   \\    /   O peration     | Website:  https://openfoam.org
    \\  /    A nd           | Version:  dev
     \\/     M anipulation  |
\*---------------------------------------------------------------------------*/
FoamFile
{
    format      ascii;
    class       volScalarField;
    location    "0.12";
    object      growth;
}
// * * * * * * * * * * * * * * * * * * * * * * * * * * * * * * * * * * * * * //

dimensions      [0 0 0 0 0 0 0];

internalField   uniform 0;

boundaryField
{
    frontAndBack
    {
        type            empty;
    }
    inlet
    {
        type            calculated;
        value           uniform 0;
    }
    outlet
    {
        type            calculated;
        value           uniform 0;
    }
    substrate
    {
        type            calculated;
        value           nonuniform List<scalar> 
400
(
0.687969
0.670883
0.657574
0.645146
0.633179
0.621639
0.61043
0.599463
0.588677
0.57803
0.56749
0.557031
0.546638
0.536298
0.526001
0.515744
0.505524
0.495339
0.485192
0.475086
0.465023
0.455009
0.445049
0.435148
0.425311
0.415546
0.405858
0.396252
0.386736
0.377313
0.367991
0.358773
0.349666
0.340674
0.331801
0.323051
0.314429
0.305937
0.29758
0.289359
0.281278
0.273339
0.265543
0.257893
0.25039
0.243034
0.235827
0.22877
0.221863
0.215105
0.208497
0.202039
0.195729
0.189568
0.183554
0.177687
0.171964
0.166386
0.160949
0.155654
0.150497
0.145478
0.140594
0.135843
0.131223
0.126733
0.122369
0.118131
0.114015
0.110019
0.10614
0.102378
0.098728
0.095189
0.0917584
0.0884336
0.0852124
0.0820922
0.0790708
0.0761457
0.0733146
0.0705752
0.0679251
0.065362
0.0628837
0.060488
0.0581726
0.0559353
0.0537741
0.0516867
0.0496711
0.0477253
0.0458473
0.0440351
0.0422867
0.0406003
0.038974
0.037406
0.0358946
0.0344379
0.0330343
0.0316822
0.0303799
0.0291258
0.0279183
0.0267561
0.0256376
0.0245613
0.023526
0.0225302
0.0215726
0.0206519
0.0197669
0.0189163
0.018099
0.0173139
0.0165597
0.0158355
0.0151402
0.0144727
0.0138321
0.0132173
0.0126276
0.0120619
0.0115194
0.0109992
0.0105005
0.0100226
0.00956461
0.00912581
0.0087055
0.00830296
0.00791752
0.00754853
0.00719535
0.00685737
0.00653401
0.00622469
0.00592887
0.005646
0.00537557
0.00511709
0.00487009
0.00463409
0.00440866
0.00419336
0.00398778
0.00379152
0.00360419
0.00342544
0.00325489
0.0030922
0.00293705
0.00278912
0.00264809
0.00251368
0.0023856
0.00226358
0.00214735
0.00203667
0.00193129
0.00183098
0.00173551
0.00164467
0.00155826
0.00147607
0.00139792
0.00132363
0.00125301
0.0011859
0.00112215
0.00106159
0.00100408
0.000949478
0.000897648
0.000848461
0.00080179
0.000757519
0.000715532
0.000675722
0.000637982
0.000602215
0.000568324
0.000536219
0.000505812
0.00047702
0.000449763
0.000423966
0.000399556
0.000376464
0.000354624
0.000333973
0.00031445
0.000295999
0.000278564
0.000262094
0.00024654
0.000231852
0.000217988
0.000204903
0.000192556
0.00018091
0.000169927
0.000159571
0.00014981
0.000140612
0.000131945
0.000123782
0.000116095
0.000108858
0.000102047
9.56375e-05
8.96082e-05
8.39377e-05
7.86061e-05
7.35944e-05
6.88846e-05
6.44596e-05
6.03033e-05
5.64004e-05
5.27365e-05
4.92977e-05
4.60712e-05
4.30445e-05
4.02061e-05
3.7545e-05
3.50507e-05
3.27135e-05
3.0524e-05
2.84734e-05
2.65535e-05
2.47564e-05
2.30747e-05
2.15014e-05
2.003e-05
1.86542e-05
1.73681e-05
1.61663e-05
1.50436e-05
1.39949e-05
1.30158e-05
1.21018e-05
1.12489e-05
1.04532e-05
9.71107e-06
9.01911e-06
8.37411e-06
7.77305e-06
7.21311e-06
6.6916e-06
6.20605e-06
5.75409e-06
5.33354e-06
4.9423e-06
4.57846e-06
4.24019e-06
3.92578e-06
3.63364e-06
3.36227e-06
3.11027e-06
2.87631e-06
2.65919e-06
2.45774e-06
2.27088e-06
2.09762e-06
1.93701e-06
1.78817e-06
1.65029e-06
1.52258e-06
1.40435e-06
1.29491e-06
1.19364e-06
1.09997e-06
1.01335e-06
9.33265e-07
8.59256e-07
7.90878e-07
7.27724e-07
6.69411e-07
6.15585e-07
5.65916e-07
5.20098e-07
4.77844e-07
4.3889e-07
4.02989e-07
3.69911e-07
3.39446e-07
3.11394e-07
2.85573e-07
2.61813e-07
2.39956e-07
2.19856e-07
2.01377e-07
1.84395e-07
1.68793e-07
1.54463e-07
1.41306e-07
1.2923e-07
1.18149e-07
1.07984e-07
9.86632e-08
9.01187e-08
8.22886e-08
7.51152e-08
6.85457e-08
6.25312e-08
5.70264e-08
5.19899e-08
4.73833e-08
4.31713e-08
3.93212e-08
3.58032e-08
3.25896e-08
2.96551e-08
2.69762e-08
2.45316e-08
2.23013e-08
2.02674e-08
1.84131e-08
1.67232e-08
1.51835e-08
1.37811e-08
1.25043e-08
1.13421e-08
1.02847e-08
9.32279e-09
8.44818e-09
7.65315e-09
6.93071e-09
6.27444e-09
5.67849e-09
5.13748e-09
4.64651e-09
4.2011e-09
3.79716e-09
3.43095e-09
3.09905e-09
2.79835e-09
2.526e-09
2.27943e-09
2.05625e-09
1.85432e-09
1.67167e-09
1.50652e-09
1.35725e-09
1.22237e-09
1.10053e-09
9.90511e-10
8.912e-10
8.01584e-10
7.20742e-10
6.47842e-10
5.82124e-10
5.229e-10
4.69548e-10
4.21501e-10
3.78245e-10
3.39317e-10
3.04295e-10
2.72798e-10
2.44481e-10
2.19031e-10
1.96165e-10
1.75628e-10
1.5719e-10
1.4064e-10
1.25792e-10
1.12474e-10
1.00533e-10
8.98299e-11
8.02399e-11
7.16501e-11
6.3959e-11
5.70748e-11
5.09151e-11
4.54056e-11
4.04796e-11
3.60767e-11
3.21432e-11
2.86303e-11
2.54946e-11
2.26969e-11
2.02021e-11
1.79789e-11
1.59993e-11
1.42382e-11
1.26733e-11
1.12849e-11
1.00556e-11
8.97015e-12
8.01517e-12
7.17933e-12
6.45301e-12
5.82833e-12
5.29911e-12
4.86077e-12
4.51038e-12
4.24651e-12
4.06919e-12
3.97962e-12
)
;
    }
    Wall
    {
        type            calculated;
        value           nonuniform List<scalar> 
400
(
0.687969
0.670883
0.657575
0.645146
0.633179
0.62164
0.61043
0.599463
0.588678
0.578031
0.56749
0.557033
0.54664
0.5363
0.526004
0.515747
0.505527
0.495343
0.485196
0.47509
0.465028
0.455014
0.445054
0.435153
0.425318
0.415553
0.405865
0.396259
0.386743
0.37732
0.367998
0.358781
0.349674
0.340681
0.331808
0.323059
0.314437
0.305945
0.297588
0.289367
0.281286
0.273347
0.265551
0.257901
0.250397
0.243042
0.235835
0.228778
0.22187
0.215112
0.208504
0.202046
0.195736
0.189575
0.183561
0.177693
0.171971
0.166392
0.160956
0.15566
0.150503
0.145484
0.140599
0.135849
0.131229
0.126738
0.122375
0.118136
0.11402
0.110024
0.106145
0.102383
0.0987328
0.0951937
0.091763
0.0884381
0.0852167
0.0820965
0.0790749
0.0761497
0.0733186
0.070579
0.0679288
0.0653657
0.0628873
0.0604914
0.0581759
0.0559386
0.0537772
0.0516897
0.0496741
0.0477282
0.0458501
0.0440378
0.0422893
0.0406028
0.0389765
0.0374084
0.0358969
0.0344402
0.0330365
0.0316843
0.0303819
0.0291277
0.0279203
0.026758
0.0256394
0.0245631
0.0235277
0.0225318
0.0215741
0.0206534
0.0197683
0.0189177
0.0181004
0.0173152
0.016561
0.0158368
0.0151414
0.0144739
0.0138332
0.0132184
0.0126286
0.0120629
0.0115204
0.0110001
0.0105015
0.0100235
0.00956546
0.00912663
0.00870629
0.00830372
0.00791825
0.00754923
0.00719603
0.00685803
0.00653464
0.0062253
0.00592945
0.00564656
0.00537611
0.00511762
0.00487059
0.00463457
0.00440912
0.0041938
0.00398821
0.00379193
0.00360459
0.00342582
0.00325525
0.00309255
0.00293739
0.00278944
0.0026484
0.00251398
0.00238589
0.00226385
0.00214761
0.00203692
0.00193153
0.00183121
0.00173573
0.00164488
0.00155846
0.00147627
0.00139811
0.0013238
0.00125318
0.00118606
0.0011223
0.00106174
0.00100422
0.000949612
0.000897776
0.000848583
0.000801907
0.00075763
0.000715638
0.000675823
0.000638079
0.000602307
0.000568412
0.000536302
0.000505891
0.000477096
0.000449835
0.000424035
0.000399622
0.000376527
0.000354683
0.000334029
0.000314504
0.00029605
0.000278613
0.000262141
0.000246583
0.000231894
0.000218027
0.00020494
0.000192592
0.000180944
0.000169959
0.000159602
0.000149839
0.000140639
0.000131971
0.000123806
0.000116118
0.00010888
0.000102068
9.56572e-05
8.96269e-05
8.39554e-05
7.86228e-05
7.36102e-05
6.88995e-05
6.44737e-05
6.03167e-05
5.6413e-05
5.27484e-05
4.9309e-05
4.60818e-05
4.30545e-05
4.02156e-05
3.75539e-05
3.50591e-05
3.27214e-05
3.05314e-05
2.84804e-05
2.65601e-05
2.47626e-05
2.30805e-05
2.15069e-05
2.00351e-05
1.8659e-05
1.73727e-05
1.61706e-05
1.50476e-05
1.39987e-05
1.30194e-05
1.21052e-05
1.1252e-05
1.04561e-05
9.71384e-06
9.02171e-06
8.37654e-06
7.77533e-06
7.21524e-06
6.6936e-06
6.20792e-06
5.75584e-06
5.33517e-06
4.94384e-06
4.57989e-06
4.24153e-06
3.92703e-06
3.63481e-06
3.36336e-06
3.11129e-06
2.87727e-06
2.66008e-06
2.45857e-06
2.27166e-06
2.09834e-06
1.93768e-06
1.7888e-06
1.65087e-06
1.52313e-06
1.40485e-06
1.29538e-06
1.19408e-06
1.10038e-06
1.01372e-06
9.33617e-07
8.59582e-07
7.91182e-07
7.28005e-07
6.69672e-07
6.15828e-07
5.66141e-07
5.20306e-07
4.78037e-07
4.39069e-07
4.03155e-07
3.70065e-07
3.39588e-07
3.11526e-07
2.85695e-07
2.61926e-07
2.4006e-07
2.19952e-07
2.01467e-07
1.84478e-07
1.68869e-07
1.54534e-07
1.41371e-07
1.2929e-07
1.18204e-07
1.08035e-07
9.87101e-08
9.0162e-08
8.23284e-08
7.51519e-08
6.85795e-08
6.25622e-08
5.7055e-08
5.20162e-08
4.74075e-08
4.31935e-08
3.93416e-08
3.58219e-08
3.26068e-08
2.96709e-08
2.69907e-08
2.45448e-08
2.23135e-08
2.02786e-08
1.84234e-08
1.67326e-08
1.5192e-08
1.3789e-08
1.25115e-08
1.13487e-08
1.02907e-08
9.32829e-09
8.4532e-09
7.65774e-09
6.9349e-09
6.27827e-09
5.68197e-09
5.14066e-09
4.64941e-09
4.20375e-09
3.79957e-09
3.43314e-09
3.10105e-09
2.80017e-09
2.52766e-09
2.28093e-09
2.05762e-09
1.85556e-09
1.6728e-09
1.50755e-09
1.35818e-09
1.22322e-09
1.1013e-09
9.9121e-10
8.91834e-10
8.02158e-10
7.21263e-10
6.48313e-10
5.82551e-10
5.23287e-10
4.69898e-10
4.21817e-10
3.78532e-10
3.39576e-10
3.04529e-10
2.7301e-10
2.44672e-10
2.19203e-10
1.9632e-10
1.75769e-10
1.57316e-10
1.40755e-10
1.25895e-10
1.12567e-10
1.00616e-10
8.9905e-11
8.03075e-11
7.1711e-11
6.40137e-11
5.7124e-11
5.09593e-11
4.54454e-11
4.05152e-11
3.61088e-11
3.21719e-11
2.86561e-11
2.55178e-11
2.27176e-11
2.02207e-11
1.79956e-11
1.60143e-11
1.42516e-11
1.26853e-11
1.12957e-11
1.00653e-11
8.97881e-12
8.02296e-12
7.18634e-12
6.45934e-12
5.83409e-12
5.30438e-12
4.86565e-12
4.51494e-12
4.25076e-12
4.07303e-12
3.98317e-12
)
;
    }
}


// ************************************************************************* //
