/*--------------------------------*- C++ -*----------------------------------*\
  =========                 |
  \\      /  F ield         | OpenFOAM: The Open Source CFD Toolbox
   \\    /   O peration     | Website:  https://openfoam.org
    \\  /    A nd           | Version:  dev
     \\/     M anipulation  |
\*---------------------------------------------------------------------------*/
FoamFile
{
    format      ascii;
    class       volScalarField;
    location    "0.12";
    object      N1;
}
// * * * * * * * * * * * * * * * * * * * * * * * * * * * * * * * * * * * * * //

dimensions      [0 0 0 0 0 0 0];

internalField   nonuniform List<scalar> 
8000
(
0.600328
0.597482
0.599103
0.600885
0.602299
0.603414
0.604163
0.604477
0.604322
0.60368
0.602542
0.600908
0.598786
0.596183
0.593114
0.589591
0.585632
0.581252
0.57647
0.571304
0.565774
0.559901
0.553704
0.547203
0.54042
0.533375
0.526089
0.518582
0.510875
0.502987
0.494939
0.486749
0.478436
0.470019
0.461514
0.45294
0.444312
0.435646
0.426957
0.41826
0.409567
0.400892
0.392247
0.383643
0.37509
0.366598
0.358177
0.349835
0.341579
0.333416
0.325353
0.317396
0.309549
0.301817
0.294204
0.286713
0.279347
0.27211
0.265002
0.258025
0.251181
0.24447
0.237893
0.23145
0.225142
0.218967
0.212925
0.207015
0.201237
0.195589
0.19007
0.184679
0.179414
0.174273
0.169255
0.164358
0.159579
0.154918
0.150372
0.145938
0.141616
0.137403
0.133297
0.129295
0.125396
0.121598
0.117899
0.114296
0.110788
0.107372
0.104047
0.10081
0.0976606
0.0945955
0.0916133
0.088712
0.0858899
0.0831451
0.080476
0.0778806
0.0753575
0.0729047
0.0705208
0.0682041
0.065953
0.063766
0.0616415
0.059578
0.0575741
0.0556283
0.0537392
0.0519055
0.0501258
0.0483987
0.046723
0.0450974
0.0435207
0.0419916
0.0405089
0.0390714
0.0376781
0.0363278
0.0350194
0.0337517
0.0325238
0.0313347
0.0301832
0.0290685
0.0279895
0.0269453
0.025935
0.0249576
0.0240123
0.0230982
0.0222144
0.0213601
0.0205345
0.0197368
0.0189661
0.0182218
0.0175031
0.0168092
0.0161394
0.015493
0.0148694
0.0142679
0.0136877
0.0131284
0.0125891
0.0120694
0.0115687
0.0110863
0.0106217
0.0101743
0.00974367
0.00932915
0.00893029
0.00854657
0.0081775
0.00782261
0.00748144
0.00715353
0.00683843
0.00653573
0.00624499
0.00596582
0.00569782
0.0054406
0.00519378
0.00495701
0.00472993
0.0045122
0.00430348
0.00410345
0.00391179
0.0037282
0.00355238
0.00338404
0.00322291
0.00306871
0.00292119
0.00278009
0.00264516
0.00251617
0.00239289
0.00227508
0.00216255
0.00205508
0.00195246
0.00185451
0.00176104
0.00167186
0.0015868
0.00150569
0.00142836
0.00135466
0.00128444
0.00121755
0.00115385
0.0010932
0.00103548
0.000980545
0.000928288
0.000878588
0.000831332
0.000786412
0.000743725
0.00070317
0.000664651
0.000628075
0.000593355
0.000560405
0.000529144
0.000499492
0.000471375
0.000444721
0.00041946
0.000395527
0.000372857
0.000351391
0.00033107
0.000311839
0.000293643
0.000276433
0.000260159
0.000244774
0.000230236
0.0002165
0.000203526
0.000191276
0.000179712
0.0001688
0.000158505
0.000148795
0.000139641
0.000131011
0.00012288
0.00011522
0.000108007
0.000101215
9.48231e-05
8.88088e-05
8.31516e-05
7.78319e-05
7.28311e-05
6.81315e-05
6.37163e-05
5.95695e-05
5.5676e-05
5.20215e-05
4.85924e-05
4.53756e-05
4.23591e-05
3.95312e-05
3.68809e-05
3.43979e-05
3.20724e-05
2.98949e-05
2.78568e-05
2.59497e-05
2.41658e-05
2.24976e-05
2.09381e-05
1.94807e-05
1.81192e-05
1.68476e-05
1.56603e-05
1.45522e-05
1.35183e-05
1.2554e-05
1.16548e-05
1.08166e-05
1.00355e-05
9.3079e-06
8.63034e-06
7.99957e-06
7.41255e-06
6.86643e-06
6.35853e-06
5.88633e-06
5.44745e-06
5.03969e-06
4.66096e-06
4.30931e-06
3.98291e-06
3.68005e-06
3.39913e-06
3.13864e-06
2.89718e-06
2.67343e-06
2.46615e-06
2.27422e-06
2.09654e-06
1.93211e-06
1.78e-06
1.63933e-06
1.50928e-06
1.38909e-06
1.27806e-06
1.17552e-06
1.08085e-06
9.93473e-07
9.12862e-07
8.38515e-07
7.6997e-07
7.06794e-07
6.48588e-07
5.94978e-07
5.45618e-07
5.00187e-07
4.58386e-07
4.1994e-07
3.84589e-07
3.52098e-07
3.22243e-07
2.94822e-07
2.69644e-07
2.46533e-07
2.25328e-07
2.05878e-07
1.88044e-07
1.71696e-07
1.56718e-07
1.42998e-07
1.30435e-07
1.18935e-07
1.08413e-07
9.87889e-08
8.99884e-08
8.19441e-08
7.45937e-08
6.78797e-08
6.1749e-08
5.6153e-08
5.10468e-08
4.63892e-08
4.21423e-08
3.82711e-08
3.47437e-08
3.15307e-08
2.8605e-08
2.5942e-08
2.35189e-08
2.13148e-08
1.93107e-08
1.74891e-08
1.58338e-08
1.43304e-08
1.29652e-08
1.17261e-08
1.06018e-08
9.58194e-09
8.65726e-09
7.81913e-09
7.05972e-09
6.37187e-09
5.74907e-09
5.18535e-09
4.67531e-09
4.21398e-09
3.79686e-09
3.41986e-09
3.07923e-09
2.77157e-09
2.49379e-09
2.24308e-09
2.01688e-09
1.81287e-09
1.62893e-09
1.46315e-09
1.3138e-09
1.17928e-09
1.05818e-09
9.49191e-10
8.51142e-10
7.62968e-10
6.83705e-10
6.12482e-10
5.48508e-10
4.91073e-10
4.39533e-10
3.93306e-10
3.51871e-10
3.14757e-10
2.8154e-10
2.51841e-10
2.25322e-10
2.01681e-10
1.80652e-10
1.61998e-10
1.45517e-10
1.31033e-10
1.184e-10
1.07496e-10
9.82298e-11
9.05341e-11
8.43683e-11
7.97167e-11
7.65868e-11
7.50045e-11
0.600665
0.601668
0.604357
0.606876
0.60887
0.610414
0.611507
0.612122
0.612241
0.61186
0.610966
0.609563
0.60766
0.605264
0.60239
0.599051
0.595262
0.591041
0.586406
0.581375
0.575968
0.570204
0.564104
0.557688
0.550978
0.543993
0.536755
0.529285
0.521602
0.513727
0.50568
0.49748
0.489147
0.480699
0.472154
0.463529
0.454842
0.446108
0.437342
0.42856
0.419776
0.411002
0.402251
0.393535
0.384864
0.37625
0.367701
0.359227
0.350835
0.342534
0.334328
0.326225
0.318231
0.310349
0.302585
0.294941
0.287422
0.28003
0.272767
0.265635
0.258635
0.251769
0.245038
0.238441
0.231979
0.225652
0.219459
0.2134
0.207473
0.201679
0.196015
0.19048
0.185073
0.179792
0.174636
0.169603
0.164691
0.159898
0.155222
0.150662
0.146214
0.141878
0.137651
0.133532
0.129517
0.125605
0.121794
0.118082
0.114467
0.110946
0.107519
0.104182
0.100934
0.0977729
0.0946969
0.091704
0.0887924
0.0859603
0.0832058
0.0805272
0.0779228
0.0753908
0.0729296
0.0705375
0.068213
0.0659543
0.06376
0.0616286
0.0595585
0.0575483
0.0555966
0.0537018
0.0518627
0.0500779
0.0483461
0.0466659
0.0450361
0.0434554
0.0419226
0.0404365
0.0389959
0.0375997
0.0362467
0.0349358
0.033666
0.0324362
0.0312452
0.0300923
0.0289762
0.0278961
0.0268509
0.0258398
0.0248618
0.023916
0.0230016
0.0221177
0.0212634
0.0204379
0.0196404
0.0188701
0.0181263
0.0174081
0.0167149
0.016046
0.0154005
0.0147778
0.0141773
0.0135983
0.0130401
0.0125021
0.0119837
0.0114843
0.0110032
0.0105401
0.0100941
0.00966494
0.00925194
0.00885461
0.00847244
0.00810494
0.00775163
0.00741204
0.00708573
0.00677223
0.00647112
0.00618198
0.0059044
0.00563798
0.00538233
0.00513709
0.00490187
0.00467632
0.00446011
0.00425289
0.00405434
0.00386415
0.003682
0.0035076
0.00334066
0.0031809
0.00302805
0.00288185
0.00274205
0.00260839
0.00248064
0.00235857
0.00224196
0.00213059
0.00202425
0.00192274
0.00182587
0.00173345
0.00164529
0.00156122
0.00148108
0.00140469
0.00133191
0.00126258
0.00119655
0.00113368
0.00107384
0.0010169
0.000962725
0.000911202
0.000862212
0.000815643
0.000771387
0.00072934
0.000689404
0.000651482
0.000615482
0.000581317
0.000548902
0.000518155
0.000488999
0.00046136
0.000435164
0.000410345
0.000386836
0.000364574
0.000343499
0.000323553
0.000304681
0.000286831
0.000269951
0.000253994
0.000238914
0.000224666
0.000211208
0.0001985
0.000186505
0.000175184
0.000164504
0.000154431
0.000144933
0.00013598
0.000127544
0.000119596
0.000112111
0.000105065
9.84319e-05
9.21911e-05
8.63207e-05
8.08004e-05
7.56108e-05
7.07337e-05
6.61515e-05
6.18479e-05
5.7807e-05
5.40141e-05
5.04549e-05
4.71161e-05
4.3985e-05
4.10497e-05
3.82986e-05
3.57211e-05
3.3307e-05
3.10466e-05
2.89308e-05
2.69509e-05
2.50988e-05
2.33668e-05
2.17477e-05
2.02345e-05
1.88208e-05
1.75004e-05
1.62676e-05
1.5117e-05
1.40433e-05
1.30419e-05
1.2108e-05
1.12376e-05
1.04264e-05
9.67071e-06
8.96698e-06
8.31184e-06
7.70213e-06
7.13488e-06
6.6073e-06
6.11679e-06
5.6609e-06
5.23731e-06
4.84386e-06
4.47854e-06
4.13944e-06
3.82479e-06
3.53292e-06
3.26227e-06
3.01138e-06
2.77889e-06
2.56351e-06
2.36407e-06
2.17943e-06
2.00856e-06
1.85048e-06
1.70429e-06
1.56913e-06
1.44422e-06
1.32882e-06
1.22224e-06
1.12384e-06
1.03302e-06
9.4923e-07
8.71947e-07
8.00692e-07
7.35017e-07
6.74506e-07
6.18772e-07
5.67455e-07
5.20221e-07
4.7676e-07
4.36785e-07
4.00029e-07
3.66243e-07
3.352e-07
3.06685e-07
2.80502e-07
2.56469e-07
2.34416e-07
2.14188e-07
1.95639e-07
1.78637e-07
1.63058e-07
1.48787e-07
1.3572e-07
1.23758e-07
1.12813e-07
1.02801e-07
9.36456e-08
8.5277e-08
7.763e-08
7.06448e-08
6.42663e-08
5.8444e-08
5.31311e-08
4.82847e-08
4.38655e-08
3.98373e-08
3.61666e-08
3.2823e-08
2.97784e-08
2.70069e-08
2.44851e-08
2.21911e-08
2.01052e-08
1.82092e-08
1.64863e-08
1.49213e-08
1.35003e-08
1.22104e-08
1.104e-08
9.97832e-09
9.01567e-09
8.14309e-09
7.35243e-09
6.63627e-09
5.98781e-09
5.40085e-09
4.86975e-09
4.38937e-09
3.95502e-09
3.56242e-09
3.20769e-09
2.88729e-09
2.59799e-09
2.33688e-09
2.10128e-09
1.88879e-09
1.6972e-09
1.52452e-09
1.36894e-09
1.22882e-09
1.10266e-09
9.89123e-10
8.86976e-10
7.95113e-10
7.12532e-10
6.38323e-10
5.71666e-10
5.11819e-10
4.58112e-10
4.0994e-10
3.66759e-10
3.28078e-10
2.93456e-10
2.62499e-10
2.34852e-10
2.10203e-10
1.88271e-10
1.68814e-10
1.51616e-10
1.36495e-10
1.23299e-10
1.119e-10
1.02202e-10
9.41365e-11
8.76608e-11
8.27613e-11
7.94509e-11
7.77679e-11
0.602208
0.605372
0.608658
0.611658
0.614176
0.616189
0.617689
0.618666
0.619111
0.619026
0.618418
0.617276
0.615617
0.613451
0.610793
0.607655
0.604056
0.600011
0.595539
0.590658
0.585389
0.57975
0.573763
0.567447
0.560824
0.553914
0.546738
0.539318
0.531674
0.523825
0.515794
0.507598
0.499258
0.490793
0.48222
0.473558
0.464824
0.456034
0.447204
0.43835
0.429485
0.420624
0.411778
0.402962
0.394185
0.385459
0.376794
0.368198
0.359681
0.35125
0.342912
0.334674
0.326541
0.318519
0.310613
0.302825
0.295161
0.287623
0.280213
0.272934
0.265788
0.258775
0.251897
0.245154
0.238546
0.232074
0.225737
0.219535
0.213467
0.207533
0.20173
0.196059
0.190517
0.185102
0.179815
0.174652
0.169612
0.164693
0.159894
0.155211
0.150645
0.146191
0.141849
0.137616
0.13349
0.129469
0.125551
0.121735
0.118017
0.114396
0.11087
0.107437
0.104095
0.100843
0.0976767
0.094596
0.0915986
0.0886827
0.0858464
0.083088
0.0804056
0.0777976
0.0752622
0.0727977
0.0704026
0.0680752
0.065814
0.0636173
0.0614836
0.0594115
0.0573994
0.055446
0.0535498
0.0517094
0.0499235
0.0481907
0.0465098
0.0448794
0.0432984
0.0417653
0.0402792
0.0388387
0.0374427
0.0360902
0.0347798
0.0335107
0.0322817
0.0310917
0.0299398
0.0288249
0.027746
0.0267023
0.0256926
0.0247162
0.0237721
0.0228595
0.0219773
0.0211249
0.0203014
0.019506
0.0187378
0.017996
0.0172801
0.0165891
0.0159223
0.0152791
0.0146588
0.0140606
0.0134839
0.0129281
0.0123924
0.0118764
0.0113794
0.0109008
0.0104399
0.00999641
0.00956958
0.00915893
0.00876393
0.00838409
0.00801889
0.00766787
0.00733055
0.00700647
0.00669518
0.00639626
0.00610927
0.00583381
0.00556948
0.00531589
0.00507267
0.00483944
0.00461585
0.00440155
0.00419621
0.0039995
0.0038111
0.00363072
0.00345804
0.00329279
0.00313468
0.00298344
0.0028388
0.00270053
0.00256836
0.00244206
0.00232141
0.00220617
0.00209613
0.00199109
0.00189084
0.0017952
0.00170396
0.00161696
0.00153401
0.00145495
0.00137961
0.00130784
0.00123949
0.00117441
0.00111246
0.00105351
0.000997427
0.000944083
0.000893359
0.000845139
0.000799313
0.000755773
0.000714417
0.000675145
0.000637862
0.000602478
0.000568905
0.000537059
0.000506859
0.000478228
0.000451093
0.000425382
0.000401027
0.000377963
0.000356128
0.000335462
0.000315909
0.000297412
0.000279921
0.000263386
0.000247758
0.000232992
0.000219044
0.000205873
0.00019344
0.000181706
0.000170635
0.000160193
0.000150347
0.000141066
0.000132319
0.000124079
0.000116319
0.000109012
0.000102135
9.56631e-05
8.95754e-05
8.38505e-05
7.84684e-05
7.341e-05
6.86575e-05
6.41936e-05
6.0002e-05
5.60675e-05
5.23752e-05
4.89115e-05
4.56631e-05
4.26176e-05
3.97632e-05
3.70888e-05
3.45838e-05
3.22381e-05
3.00424e-05
2.79877e-05
2.60655e-05
2.42679e-05
2.25873e-05
2.10166e-05
1.95491e-05
1.81785e-05
1.68987e-05
1.57041e-05
1.45894e-05
1.35497e-05
1.258e-05
1.16762e-05
1.08338e-05
1.00491e-05
9.31823e-06
8.63782e-06
8.00456e-06
7.41538e-06
6.86738e-06
6.35786e-06
5.88427e-06
5.44421e-06
5.03546e-06
4.6559e-06
4.30358e-06
3.97663e-06
3.67335e-06
3.3921e-06
3.13137e-06
2.88975e-06
2.66591e-06
2.45861e-06
2.26669e-06
2.08908e-06
1.92476e-06
1.77278e-06
1.63227e-06
1.50241e-06
1.38242e-06
1.2716e-06
1.16928e-06
1.07484e-06
9.87707e-07
9.07335e-07
8.33228e-07
7.64921e-07
7.01982e-07
6.44008e-07
5.90626e-07
5.4149e-07
4.96276e-07
4.54687e-07
4.16444e-07
3.81291e-07
3.48989e-07
3.19316e-07
2.92069e-07
2.67058e-07
2.44106e-07
2.23053e-07
2.03746e-07
1.86049e-07
1.69831e-07
1.54975e-07
1.41371e-07
1.28918e-07
1.17522e-07
1.07098e-07
9.75646e-08
8.88501e-08
8.08867e-08
7.3612e-08
6.6969e-08
6.09048e-08
5.53709e-08
5.03227e-08
4.57193e-08
4.15229e-08
3.76988e-08
3.42152e-08
3.1043e-08
2.81552e-08
2.55274e-08
2.3137e-08
2.09632e-08
1.89872e-08
1.71916e-08
1.55604e-08
1.40792e-08
1.27347e-08
1.15145e-08
1.04078e-08
9.40415e-09
8.4944e-09
7.67002e-09
6.92327e-09
6.24707e-09
5.63499e-09
5.08112e-09
4.58012e-09
4.1271e-09
3.71761e-09
3.34759e-09
3.01336e-09
2.71157e-09
2.43916e-09
2.19337e-09
1.97166e-09
1.77176e-09
1.59157e-09
1.42922e-09
1.28299e-09
1.15133e-09
1.03283e-09
9.26216e-10
8.3033e-10
7.44126e-10
6.66657e-10
5.97068e-10
5.34585e-10
4.78507e-10
4.28206e-10
3.83111e-10
3.42712e-10
3.06548e-10
2.74207e-10
2.45319e-10
2.19557e-10
1.96629e-10
1.76278e-10
1.58282e-10
1.42448e-10
1.28616e-10
1.16655e-10
1.06461e-10
9.79638e-11
9.11216e-11
8.59236e-11
8.2391e-11
8.05818e-11
0.60307
0.607785
0.611848
0.615404
0.61844
0.620923
0.622842
0.624195
0.624982
0.625207
0.624889
0.624023
0.622616
0.620687
0.618251
0.615322
0.611917
0.608054
0.603751
0.599027
0.593902
0.588394
0.582526
0.576317
0.569789
0.562962
0.555857
0.548496
0.540899
0.533086
0.52508
0.516898
0.508562
0.500089
0.4915
0.482811
0.474042
0.465207
0.456325
0.44741
0.438477
0.42954
0.420613
0.411708
0.402837
0.394012
0.385242
0.376537
0.367907
0.359359
0.3509
0.342539
0.33428
0.32613
0.318093
0.310174
0.302377
0.294705
0.28716
0.279746
0.272463
0.265315
0.258301
0.251422
0.24468
0.238074
0.231604
0.22527
0.219071
0.213006
0.207075
0.201276
0.195608
0.19007
0.18466
0.179377
0.174218
0.169182
0.164268
0.159472
0.154794
0.150231
0.145781
0.141443
0.137213
0.133091
0.129074
0.12516
0.121347
0.117633
0.114015
0.110493
0.107063
0.103725
0.100475
0.0973123
0.0942349
0.0912408
0.0883282
0.0854951
0.08274
0.080061
0.0774563
0.0749243
0.0724633
0.0700716
0.0677477
0.06549
0.0632969
0.0611669
0.0590984
0.0570901
0.0551405
0.0532481
0.0514116
0.0496296
0.0479008
0.0462239
0.0445976
0.0430206
0.0414917
0.0400097
0.0385735
0.0371817
0.0358334
0.0345274
0.0332626
0.0320379
0.0308523
0.0297047
0.0285942
0.0275197
0.0264803
0.0254751
0.0245031
0.0235634
0.0226551
0.0217773
0.0209292
0.02011
0.0193189
0.0185549
0.0178175
0.0171057
0.0164189
0.0157563
0.0151172
0.0145009
0.0139067
0.013334
0.0127821
0.0122504
0.0117382
0.0112449
0.01077
0.0103129
0.00987297
0.00944969
0.00904253
0.00865097
0.0082745
0.00791262
0.00756484
0.0072307
0.00690974
0.00660151
0.00630558
0.00602153
0.00574893
0.0054874
0.00523655
0.00499599
0.00476537
0.00454432
0.0043325
0.00412958
0.00393522
0.00374912
0.00357097
0.00340046
0.00323732
0.00308126
0.00293201
0.00278931
0.00265291
0.00252257
0.00239804
0.00227909
0.00216551
0.00205709
0.0019536
0.00185486
0.00176067
0.00167084
0.0015852
0.00150357
0.00142578
0.00135167
0.00128108
0.00121388
0.0011499
0.00108901
0.00103108
0.000975982
0.000923586
0.000873775
0.000826433
0.000781452
0.000738724
0.000698148
0.000659626
0.000623063
0.000588371
0.000555461
0.000524251
0.000494661
0.000466615
0.00044004
0.000414865
0.000391024
0.000368452
0.000347088
0.000326872
0.000307749
0.000289664
0.000272566
0.000256406
0.000241136
0.000226712
0.000213091
0.000200231
0.000188095
0.000176643
0.000165842
0.000155656
0.000146055
0.000137006
0.00012848
0.000120451
0.00011289
0.000105773
9.90762e-05
9.2776e-05
8.6851e-05
8.12804e-05
7.60447e-05
7.11253e-05
6.65043e-05
6.21651e-05
5.80917e-05
5.4269e-05
5.06827e-05
4.73191e-05
4.41655e-05
4.12096e-05
3.84399e-05
3.58455e-05
3.34161e-05
3.11418e-05
2.90134e-05
2.70222e-05
2.516e-05
2.34189e-05
2.17915e-05
2.0271e-05
1.88508e-05
1.75246e-05
1.62867e-05
1.51314e-05
1.40538e-05
1.30488e-05
1.21119e-05
1.12387e-05
1.04252e-05
9.66757e-06
8.96215e-06
8.30557e-06
7.69465e-06
7.12641e-06
6.59803e-06
6.10689e-06
5.6505e-06
5.22655e-06
4.83286e-06
4.46739e-06
4.12823e-06
3.8136e-06
3.52181e-06
3.25129e-06
3.00059e-06
2.76832e-06
2.5532e-06
2.35403e-06
2.1697e-06
1.99915e-06
1.8414e-06
1.69555e-06
1.56074e-06
1.43618e-06
1.32113e-06
1.21489e-06
1.11683e-06
1.02635e-06
9.42887e-07
8.65926e-07
7.94984e-07
7.29613e-07
6.69396e-07
6.13946e-07
5.62902e-07
5.1593e-07
4.72721e-07
4.32986e-07
3.9646e-07
3.62893e-07
3.32058e-07
3.03741e-07
2.77747e-07
2.53891e-07
2.32007e-07
2.11939e-07
1.93541e-07
1.76681e-07
1.61235e-07
1.4709e-07
1.34141e-07
1.2229e-07
1.11449e-07
1.01535e-07
9.24714e-08
8.41883e-08
7.66213e-08
6.97108e-08
6.3402e-08
5.76447e-08
5.23923e-08
4.76024e-08
4.32356e-08
3.92561e-08
3.56308e-08
3.23292e-08
2.93236e-08
2.65883e-08
2.41e-08
2.1837e-08
1.97798e-08
1.79103e-08
1.62119e-08
1.46696e-08
1.32694e-08
1.19988e-08
1.08461e-08
9.80083e-09
8.85323e-09
7.9945e-09
7.21659e-09
6.51214e-09
5.87443e-09
5.29735e-09
4.77532e-09
4.30325e-09
3.87651e-09
3.49089e-09
3.14254e-09
2.82798e-09
2.54403e-09
2.28781e-09
2.05668e-09
1.84826e-09
1.6604e-09
1.49112e-09
1.33863e-09
1.20134e-09
1.07775e-09
9.66557e-10
8.66544e-10
7.76625e-10
6.95812e-10
6.23213e-10
5.58021e-10
4.99509e-10
4.47019e-10
3.99957e-10
3.5779e-10
3.20038e-10
2.86271e-10
2.56103e-10
2.29192e-10
2.05232e-10
1.83956e-10
1.65131e-10
1.48555e-10
1.34058e-10
1.21504e-10
1.10787e-10
1.01831e-10
9.45965e-11
8.90773e-11
8.53051e-11
8.3359e-11
0.603522
0.60935
0.614218
0.618365
0.62189
0.624803
0.627108
0.628811
0.629919
0.630441
0.630392
0.629795
0.628631
0.626931
0.624709
0.621982
0.618766
0.615081
0.610943
0.606372
0.601389
0.596011
0.590262
0.58416
0.577727
0.570985
0.563953
0.556654
0.549109
0.541337
0.533361
0.5252
0.516874
0.508403
0.499805
0.491099
0.482303
0.473435
0.46451
0.455545
0.446556
0.437556
0.428559
0.419578
0.410626
0.401715
0.392854
0.384054
0.375324
0.366673
0.358109
0.349638
0.341268
0.333004
0.324851
0.316815
0.308899
0.301107
0.293442
0.285906
0.278502
0.271232
0.264096
0.257097
0.250233
0.243507
0.236917
0.230464
0.224147
0.217965
0.211918
0.206005
0.200224
0.194574
0.189054
0.183662
0.178396
0.173255
0.168236
0.163338
0.15856
0.153898
0.149351
0.144918
0.140595
0.136381
0.132274
0.128272
0.124372
0.120574
0.116874
0.11327
0.109761
0.106345
0.10302
0.0997831
0.0966333
0.0935685
0.0905868
0.0876863
0.0848653
0.0821219
0.0794545
0.0768614
0.0743407
0.0718908
0.0695102
0.0671972
0.0649502
0.0627677
0.0606482
0.0585901
0.056592
0.0546524
0.05277
0.0509434
0.0491712
0.047452
0.0457846
0.0441677
0.0426001
0.0410804
0.0396075
0.0381802
0.0367973
0.0354578
0.0341604
0.0329041
0.0316878
0.0305106
0.0293712
0.0282688
0.0272023
0.0261708
0.0251733
0.024209
0.0232768
0.0223759
0.0215055
0.0206646
0.0198525
0.0190683
0.0183112
0.0175805
0.0168753
0.016195
0.0155388
0.0149059
0.0142958
0.0137077
0.0131409
0.0125947
0.0120687
0.011562
0.0110742
0.0106046
0.0101527
0.00971782
0.00929951
0.0088972
0.00851038
0.00813854
0.00778117
0.0074378
0.00710795
0.00679118
0.00648703
0.00619506
0.00591487
0.00564604
0.00538817
0.00514088
0.00490378
0.00467652
0.00445873
0.00425008
0.00405024
0.00385887
0.00367566
0.00350031
0.00333253
0.00317202
0.00301851
0.00287173
0.00273142
0.00259734
0.00246923
0.00234686
0.00223
0.00211844
0.00201197
0.00191036
0.00181344
0.001721
0.00163286
0.00154884
0.00146878
0.0013925
0.00131984
0.00125066
0.0011848
0.00112212
0.00106248
0.00100575
0.000951799
0.000900509
0.00085176
0.000805439
0.000761436
0.000719647
0.000679972
0.000642313
0.000606578
0.000572677
0.000540526
0.000510043
0.000481149
0.000453768
0.00042783
0.000403264
0.000380004
0.000357988
0.000337154
0.000317446
0.000298806
0.000281183
0.000264525
0.000248784
0.000233915
0.000219872
0.000206614
0.0001941
0.000182293
0.000171155
0.000160651
0.000150749
0.000141417
0.000132624
0.000124342
0.000116543
0.000109202
0.000102293
9.57936e-05
8.96806e-05
8.39331e-05
7.85307e-05
7.34544e-05
6.86858e-05
6.42078e-05
6.00038e-05
5.60583e-05
5.23566e-05
4.88846e-05
4.56291e-05
4.25776e-05
3.97182e-05
3.70395e-05
3.45311e-05
3.21827e-05
2.99848e-05
2.79285e-05
2.60053e-05
2.4207e-05
2.25262e-05
2.09556e-05
1.94885e-05
1.81185e-05
1.68395e-05
1.5646e-05
1.45325e-05
1.34941e-05
1.25259e-05
1.16235e-05
1.07828e-05
9.99973e-06
9.2706e-06
8.59192e-06
7.9604e-06
7.37296e-06
6.8267e-06
6.31889e-06
5.847e-06
5.40862e-06
5.00151e-06
4.62355e-06
4.27279e-06
3.94737e-06
3.64556e-06
3.36573e-06
3.10639e-06
2.8661e-06
2.64354e-06
2.43747e-06
2.24673e-06
2.07025e-06
1.907e-06
1.75606e-06
1.61654e-06
1.48761e-06
1.36852e-06
1.25855e-06
1.15703e-06
1.06336e-06
9.76944e-07
8.97257e-07
8.23798e-07
7.56103e-07
6.93741e-07
6.36312e-07
5.83444e-07
5.3479e-07
4.90031e-07
4.48869e-07
4.11027e-07
3.7625e-07
3.44301e-07
3.14959e-07
2.88022e-07
2.633e-07
2.4062e-07
2.1982e-07
2.0075e-07
1.83273e-07
1.67261e-07
1.52597e-07
1.39171e-07
1.26884e-07
1.15643e-07
1.05362e-07
9.59628e-08
8.73723e-08
7.9524e-08
7.23561e-08
6.5812e-08
5.98395e-08
5.43905e-08
4.9421e-08
4.48902e-08
4.07609e-08
3.69989e-08
3.35726e-08
3.04533e-08
2.76143e-08
2.50315e-08
2.26825e-08
2.05469e-08
1.8606e-08
1.68427e-08
1.52413e-08
1.37875e-08
1.2468e-08
1.1271e-08
1.01854e-08
9.20115e-09
8.3092e-09
7.50113e-09
6.76933e-09
6.10682e-09
5.50725e-09
4.96484e-09
4.47432e-09
4.03086e-09
3.63011e-09
3.26808e-09
2.94114e-09
2.64599e-09
2.37965e-09
2.13937e-09
1.9227e-09
1.72738e-09
1.55136e-09
1.39281e-09
1.25003e-09
1.12151e-09
1.00586e-09
9.01832e-10
8.08298e-10
7.24231e-10
6.48703e-10
5.80876e-10
5.19994e-10
4.65371e-10
4.16392e-10
3.72502e-10
3.33202e-10
2.98044e-10
2.66626e-10
2.38592e-10
2.13624e-10
1.91443e-10
1.71804e-10
1.54498e-10
1.39348e-10
1.2621e-10
1.14973e-10
1.05562e-10
9.79363e-11
9.20956e-11
8.80833e-11
8.59999e-11
0.603848
0.610445
0.615977
0.620658
0.624625
0.627918
0.630562
0.632573
0.633965
0.634752
0.634947
0.634584
0.633648
0.632155
0.630129
0.627587
0.624545
0.621022
0.617037
0.612608
0.607756
0.6025
0.596861
0.59086
0.584517
0.577855
0.570894
0.563656
0.556162
0.548432
0.540488
0.53235
0.524039
0.515573
0.506973
0.498257
0.489443
0.480549
0.471592
0.462588
0.453553
0.444501
0.435446
0.426403
0.417384
0.408399
0.399462
0.390581
0.381767
0.373029
0.364374
0.355811
0.347345
0.338983
0.330732
0.322595
0.314576
0.306681
0.298912
0.291272
0.283763
0.276388
0.269147
0.262042
0.255074
0.248243
0.24155
0.234993
0.228574
0.222291
0.216144
0.210131
0.204252
0.198505
0.192889
0.187402
0.182043
0.17681
0.171702
0.166715
0.161849
0.157101
0.15247
0.147954
0.14355
0.139256
0.135071
0.130992
0.127018
0.123146
0.119373
0.1157
0.112122
0.108638
0.105247
0.101946
0.0987327
0.0956062
0.0925643
0.089605
0.0867266
0.0839272
0.0812051
0.0785586
0.0759859
0.0734853
0.0710552
0.0686939
0.0664
0.0641716
0.0620075
0.0599059
0.0578655
0.0558848
0.0539623
0.0520967
0.0502866
0.0485305
0.0468272
0.0451754
0.0435738
0.0420212
0.0405163
0.0390578
0.0376448
0.0362759
0.03495
0.0336661
0.032423
0.0312197
0.0300551
0.0289282
0.027838
0.0267835
0.0257637
0.0247778
0.0238246
0.0229035
0.0220134
0.0211536
0.020323
0.019521
0.0187468
0.0179994
0.0172781
0.0165822
0.015911
0.0152636
0.0146394
0.0140377
0.0134578
0.012899
0.0123607
0.0118423
0.0113431
0.0108626
0.0104001
0.00995504
0.00952691
0.00911514
0.0087192
0.00833857
0.00797275
0.00762124
0.00728356
0.00695924
0.00664784
0.0063489
0.00606201
0.00578673
0.00552266
0.00526941
0.0050266
0.00479384
0.00457079
0.00435708
0.00415238
0.00395635
0.00376867
0.00358904
0.00341714
0.0032527
0.00309542
0.00294503
0.00280126
0.00266386
0.00253258
0.00240717
0.00228741
0.00217308
0.00206394
0.0019598
0.00186045
0.00176569
0.00167533
0.0015892
0.00150712
0.00142891
0.00135442
0.00128348
0.00121594
0.00115167
0.00109051
0.00103233
0.000976995
0.00092439
0.000874388
0.000826874
0.000781736
0.000738867
0.000698164
0.000659528
0.000622864
0.000588081
0.000555091
0.000523811
0.00049416
0.000466061
0.000439441
0.000414228
0.000390354
0.000367756
0.000346371
0.000326139
0.000307003
0.000288911
0.000271808
0.000255647
0.000240379
0.000225959
0.000212344
0.000199493
0.000187367
0.000175928
0.00016514
0.000154969
0.000145382
0.00013635
0.000127841
0.000119829
0.000112287
0.000105188
9.85094e-05
9.22278e-05
8.63214e-05
8.07695e-05
7.55523e-05
7.06512e-05
6.60484e-05
6.17271e-05
5.76713e-05
5.38658e-05
5.02964e-05
4.69493e-05
4.38118e-05
4.08716e-05
3.81172e-05
3.55376e-05
3.31225e-05
3.08621e-05
2.87472e-05
2.6769e-05
2.49193e-05
2.31902e-05
2.15745e-05
2.00651e-05
1.86555e-05
1.73396e-05
1.61115e-05
1.49657e-05
1.38971e-05
1.29007e-05
1.1972e-05
1.11066e-05
1.03006e-05
9.55006e-06
8.8514e-06
8.20126e-06
7.59646e-06
7.03402e-06
6.51116e-06
6.02524e-06
5.5738e-06
5.15454e-06
4.76529e-06
4.40402e-06
4.06883e-06
3.75794e-06
3.46968e-06
3.2025e-06
2.95494e-06
2.72564e-06
2.51331e-06
2.31677e-06
2.1349e-06
1.96667e-06
1.81111e-06
1.6673e-06
1.53441e-06
1.41166e-06
1.29829e-06
1.19364e-06
1.09706e-06
1.00797e-06
9.25803e-07
8.50055e-07
7.80247e-07
7.15935e-07
6.56706e-07
6.02178e-07
5.51994e-07
5.05824e-07
4.63362e-07
4.24323e-07
3.88443e-07
3.55479e-07
3.25203e-07
2.97407e-07
2.71895e-07
2.48489e-07
2.27022e-07
2.07339e-07
1.89299e-07
1.72771e-07
1.57633e-07
1.43773e-07
1.31087e-07
1.1948e-07
1.08865e-07
9.91586e-08
9.02874e-08
8.2182e-08
7.47789e-08
6.80196e-08
6.18504e-08
5.62216e-08
5.10877e-08
4.64068e-08
4.21405e-08
3.82534e-08
3.4713e-08
3.14895e-08
2.85557e-08
2.58863e-08
2.34585e-08
2.12511e-08
1.92448e-08
1.7422e-08
1.57665e-08
1.42633e-08
1.28991e-08
1.16614e-08
1.05388e-08
9.52098e-09
8.59853e-09
7.76279e-09
7.00587e-09
6.32058e-09
5.70036e-09
5.13924e-09
4.63176e-09
4.17295e-09
3.75829e-09
3.38368e-09
3.04535e-09
2.73991e-09
2.46426e-09
2.21557e-09
1.9913e-09
1.78911e-09
1.6069e-09
1.44275e-09
1.29493e-09
1.16186e-09
1.04211e-09
9.34389e-10
8.37526e-10
7.5046e-10
6.72233e-10
6.01976e-10
5.38907e-10
4.82318e-10
4.31571e-10
3.86091e-10
3.45362e-10
3.08919e-10
2.76347e-10
2.47275e-10
2.21375e-10
1.98356e-10
1.77964e-10
1.59981e-10
1.44224e-10
1.30543e-10
1.18822e-10
1.08986e-10
1.00994e-10
9.48515e-11
9.06137e-11
8.8401e-11
0.604093
0.611226
0.617264
0.622383
0.62672
0.630333
0.63326
0.635528
0.637158
0.638167
0.638571
0.638398
0.63766
0.636344
0.634486
0.632102
0.62921
0.625828
0.621974
0.617668
0.61293
0.607779
0.602237
0.596324
0.590061
0.58347
0.576572
0.569389
0.561941
0.55425
0.546336
0.538222
0.529926
0.521469
0.51287
0.504148
0.495322
0.48641
0.477429
0.468395
0.459324
0.450232
0.441132
0.432039
0.422965
0.413923
0.404924
0.395978
0.387096
0.378286
0.369558
0.360919
0.352375
0.343934
0.335601
0.327381
0.319279
0.311299
0.303445
0.295719
0.288124
0.280662
0.273334
0.266143
0.259089
0.252172
0.245393
0.238751
0.232248
0.225881
0.219651
0.213556
0.207596
0.201769
0.196073
0.190508
0.185072
0.179764
0.17458
0.16952
0.164582
0.159763
0.155062
0.150477
0.146006
0.141646
0.137396
0.133254
0.129217
0.125284
0.121452
0.11772
0.114085
0.110546
0.107099
0.103745
0.10048
0.097302
0.0942102
0.0912022
0.0882761
0.0854303
0.0826629
0.0799721
0.0773562
0.0748135
0.0723423
0.069941
0.067608
0.0653417
0.0631405
0.0610029
0.0589273
0.0569124
0.0549567
0.0530586
0.051217
0.0494302
0.0476971
0.0460163
0.0443865
0.0428065
0.0412749
0.0397907
0.0383525
0.0369592
0.0356096
0.0343027
0.0330373
0.0318123
0.0306267
0.0294794
0.0283694
0.0272958
0.0262574
0.0252535
0.0242829
0.0233449
0.0224384
0.0215627
0.0207169
0.0199001
0.0191114
0.0183501
0.0176155
0.0169066
0.0162228
0.0155633
0.0149273
0.0143143
0.0137235
0.0131541
0.0126057
0.0120774
0.0115687
0.011079
0.0106077
0.0101541
0.00971775
0.00929807
0.00889451
0.00850653
0.00813363
0.00777531
0.00743107
0.00710045
0.00678297
0.00647819
0.00618568
0.005905
0.00563574
0.0053775
0.0051299
0.00489254
0.00466506
0.00444711
0.00423833
0.0040384
0.00384697
0.00366374
0.0034884
0.00332065
0.0031602
0.00300678
0.0028601
0.00271992
0.00258597
0.00245802
0.00233582
0.00221915
0.00210778
0.0020015
0.00190011
0.0018034
0.00171118
0.00162327
0.00153949
0.00145966
0.00138361
0.0013112
0.00124225
0.00117663
0.00111419
0.00105479
0.000998292
0.000944577
0.000893519
0.000845
0.000798905
0.000755125
0.000713555
0.000674095
0.000636647
0.000601119
0.000567421
0.000535468
0.000505178
0.000476472
0.000449276
0.000423516
0.000399124
0.000376034
0.000354182
0.000333508
0.000313953
0.000295464
0.000277985
0.000261467
0.000245862
0.000231124
0.000217207
0.000204071
0.000191674
0.00017998
0.000168951
0.000158552
0.00014875
0.000139515
0.000130815
0.000122622
0.000114908
0.000107649
0.000100818
9.43938e-05
8.83526e-05
8.26737e-05
7.7337e-05
7.23234e-05
6.76147e-05
6.31938e-05
5.90443e-05
5.51507e-05
5.14985e-05
4.80737e-05
4.48631e-05
4.18543e-05
3.90354e-05
3.63954e-05
3.39235e-05
3.16099e-05
2.94451e-05
2.74202e-05
2.55266e-05
2.37565e-05
2.21024e-05
2.0557e-05
1.91138e-05
1.77664e-05
1.65089e-05
1.53355e-05
1.42411e-05
1.32207e-05
1.22696e-05
1.13833e-05
1.05577e-05
9.78885e-06
9.07316e-06
8.40713e-06
7.78752e-06
7.21129e-06
6.67557e-06
6.17768e-06
5.7151e-06
5.28546e-06
4.88656e-06
4.51632e-06
4.17278e-06
3.85413e-06
3.55867e-06
3.2848e-06
3.03103e-06
2.79596e-06
2.57828e-06
2.37677e-06
2.1903e-06
2.01781e-06
1.85829e-06
1.71082e-06
1.57455e-06
1.44865e-06
1.33238e-06
1.22504e-06
1.12598e-06
1.03459e-06
9.50299e-07
8.72591e-07
8.00972e-07
7.34988e-07
6.74217e-07
6.18266e-07
5.66769e-07
5.1939e-07
4.75812e-07
4.35746e-07
3.98921e-07
3.65086e-07
3.34009e-07
3.05475e-07
2.79286e-07
2.55256e-07
2.33216e-07
2.13007e-07
1.94484e-07
1.77512e-07
1.61967e-07
1.47733e-07
1.34705e-07
1.22784e-07
1.1188e-07
1.01911e-07
9.27979e-08
8.44715e-08
7.68661e-08
6.99218e-08
6.35832e-08
5.77997e-08
5.25244e-08