/*--------------------------------*- C++ -*----------------------------------*\
  =========                 |
  \\      /  F ield         | OpenFOAM: The Open Source CFD Toolbox
   \\    /   O peration     | Website:  https://openfoam.org
    \\  /    A nd           | Version:  dev
     \\/     M anipulation  |
\*---------------------------------------------------------------------------*/
FoamFile
{
    format      ascii;
    class       volScalarField;
    location    "0.36";
    object      beta;
}
// * * * * * * * * * * * * * * * * * * * * * * * * * * * * * * * * * * * * * //

dimensions      [0 0 0 0 0 0 0];

internalField   uniform 0;

boundaryField
{
    frontAndBack
    {
        type            empty;
    }
    inlet
    {
        type            calculated;
        value           uniform 0;
    }
    outlet
    {
        type            calculated;
        value           uniform 0;
    }
    substrate
    {
        type            calculated;
        value           nonuniform List<scalar> 
400
(
0.00276608
0.00290564
0.00300803
0.00310162
0.00319055
0.00327519
0.00335654
0.00343547
0.00351263
0.00358845
0.00366328
0.00373739
0.00381096
0.00388416
0.0039571
0.00402986
0.00410251
0.00417508
0.00424762
0.00432013
0.00439261
0.00446507
0.0045375
0.00460989
0.00468221
0.00475445
0.00482658
0.00489859
0.00497045
0.00504214
0.00511363
0.0051849
0.00525591
0.00532666
0.0053971
0.00546722
0.005537
0.0056064
0.00567542
0.00574402
0.00581219
0.0058799
0.00594713
0.00601387
0.00608009
0.00614579
0.00621093
0.00627551
0.00633952
0.00640292
0.00646572
0.0065279
0.00658945
0.00665035
0.0067106
0.00677018
0.00682909
0.00688731
0.00694485
0.00700168
0.00705782
0.00711324
0.00716795
0.00722195
0.00727522
0.00732776
0.00737958
0.00743067
0.00748103
0.00753066
0.00757956
0.00762773
0.00767517
0.00772188
0.00776786
0.00781312
0.00785766
0.00790148
0.00794458
0.00798698
0.00802866
0.00806965
0.00810994
0.00814953
0.00818844
0.00822667
0.00826422
0.00830111
0.00833733
0.00837289
0.00840781
0.00844208
0.00847572
0.00850873
0.00854112
0.00857289
0.00860406
0.00863464
0.00866462
0.00869402
0.00872284
0.0087511
0.0087788
0.00880595
0.00883255
0.00885863
0.00888417
0.0089092
0.00893372
0.00895773
0.00898125
0.00900429
0.00902685
0.00904893
0.00907056
0.00909173
0.00911245
0.00913274
0.00915259
0.00917202
0.00919104
0.00920965
0.00922785
0.00924567
0.00926309
0.00928014
0.00929682
0.00931313
0.00932909
0.00934469
0.00935995
0.00937487
0.00938947
0.00940373
0.00941768
0.00943132
0.00944466
0.00945769
0.00947044
0.00948289
0.00949507
0.00950697
0.0095186
0.00952996
0.00954107
0.00955192
0.00956253
0.0095729
0.00958302
0.00959292
0.00960259
0.00961203
0.00962126
0.00963028
0.00963909
0.00964769
0.00965609
0.0096643
0.00967232
0.00968016
0.00968781
0.00969528
0.00970258
0.00970971
0.00971667
0.00972346
0.0097301
0.00973659
0.00974292
0.0097491
0.00975514
0.00976103
0.00976679
0.00977241
0.00977789
0.00978325
0.00978848
0.00979359
0.00979858
0.00980344
0.0098082
0.00981284
0.00981737
0.00982179
0.00982611
0.00983032
0.00983443
0.00983845
0.00984237
0.0098462
0.00984993
0.00985358
0.00985714
0.00986061
0.00986401
0.00986732
0.00987055
0.0098737
0.00987678
0.00987978
0.00988272
0.00988558
0.00988837
0.0098911
0.00989376
0.00989636
0.00989889
0.00990136
0.00990378
0.00990613
0.00990843
0.00991068
0.00991287
0.009915
0.00991709
0.00991913
0.00992111
0.00992305
0.00992494
0.00992679
0.00992859
0.00993035
0.00993206
0.00993374
0.00993537
0.00993696
0.00993852
0.00994004
0.00994152
0.00994296
0.00994437
0.00994575
0.00994709
0.0099484
0.00994968
0.00995093
0.00995215
0.00995334
0.00995449
0.00995563
0.00995673
0.00995781
0.00995886
0.00995988
0.00996088
0.00996186
0.00996281
0.00996374
0.00996464
0.00996553
0.00996639
0.00996723
0.00996805
0.00996886
0.00996964
0.0099704
0.00997114
0.00997187
0.00997258
0.00997327
0.00997394
0.0099746
0.00997524
0.00997587
0.00997648
0.00997707
0.00997765
0.00997822
0.00997877
0.00997931
0.00997984
0.00998035
0.00998085
0.00998134
0.00998182
0.00998228
0.00998273
0.00998318
0.00998361
0.00998403
0.00998444
0.00998484
0.00998523
0.00998561
0.00998598
0.00998634
0.00998669
0.00998704
0.00998737
0.0099877
0.00998802
0.00998833
0.00998864
0.00998893
0.00998922
0.0099895
0.00998978
0.00999004
0.0099903
0.00999056
0.00999081
0.00999105
0.00999128
0.00999151
0.00999174
0.00999196
0.00999217
0.00999238
0.00999258
0.00999278
0.00999297
0.00999316
0.00999334
0.00999352
0.00999369
0.00999386
0.00999402
0.00999418
0.00999434
0.00999449
0.00999464
0.00999479
0.00999493
0.00999507
0.0099952
0.00999533
0.00999546
0.00999558
0.0099957
0.00999582
0.00999593
0.00999605
0.00999616
0.00999626
0.00999636
0.00999646
0.00999656
0.00999666
0.00999675
0.00999684
0.00999693
0.00999701
0.0099971
0.00999718
0.00999726
0.00999734
0.00999741
0.00999748
0.00999755
0.00999762
0.00999769
0.00999776
0.00999782
0.00999788
0.00999794
0.009998
0.00999806
0.00999811
0.00999817
0.00999822
0.00999827
0.00999832
0.00999837
0.00999842
0.00999846
0.00999851
0.00999855
0.00999859
0.00999863
0.00999867
0.00999871
0.00999875
0.00999879
0.00999882
0.00999886
0.00999889
0.00999892
0.00999895
0.00999898
0.00999901
0.00999904
0.00999907
0.00999909
0.00999912
0.00999914
0.00999916
0.00999919
0.00999921
0.00999923
0.00999925
0.00999926
0.00999928
0.00999929
0.00999931
0.00999932
0.00999933
0.00999934
0.00999934
0.00999935
0.00999935
)
;
    }
    Wall
    {
        type            calculated;
        value           nonuniform List<scalar> 
400
(
0.00276608
0.00290564
0.00300802
0.00310161
0.00319055
0.0032752
0.00335655
0.00343549
0.00351265
0.00358847
0.00366331
0.00373741
0.00381099
0.00388419
0.00395712
0.00402988
0.00410253
0.00417511
0.00424764
0.00432014
0.00439263
0.00446509
0.00453751
0.0046099
0.00468221
0.00475445
0.00482659
0.0048986
0.00497046
0.00504214
0.00511363
0.00518489
0.00525591
0.00532665
0.00539709
0.00546721
0.00553699
0.0056064
0.00567541
0.00574401
0.00581217
0.00587988
0.00594712
0.00601385
0.00608008
0.00614577
0.00621092
0.0062755
0.0063395
0.00640291
0.00646571
0.00652789
0.00658943
0.00665033
0.00671058
0.00677016
0.00682907
0.00688729
0.00694483
0.00700166
0.0070578
0.00711322
0.00716793
0.00722193
0.0072752
0.00732774
0.00737956
0.00743065
0.00748101
0.00753064
0.00757954
0.00762771
0.00767514
0.00772185
0.00776784
0.0078131
0.00785764
0.00790146
0.00794456
0.00798696
0.00802864
0.00806963
0.00810992
0.00814951
0.00818842
0.00822665
0.00826421
0.00830109
0.00833731
0.00837288
0.00840779
0.00844207
0.0084757
0.00850871
0.0085411
0.00857288
0.00860405
0.00863462
0.0086646
0.008694
0.00872283
0.00875109
0.00877879
0.00880594
0.00883254
0.00885861
0.00888416
0.00890919
0.00893371
0.00895772
0.00898124
0.00900428
0.00902683
0.00904892
0.00907055
0.00909172
0.00911244
0.00913273
0.00915258
0.00917201
0.00919103
0.00920964
0.00922784
0.00924566
0.00926309
0.00928013
0.00929681
0.00931312
0.00932908
0.00934468
0.00935994
0.00937487
0.00938946
0.00940373
0.00941768
0.00943132
0.00944465
0.00945769
0.00947043
0.00948288
0.00949506
0.00950696
0.00951859
0.00952996
0.00954106
0.00955192
0.00956253
0.00957289
0.00958302
0.00959291
0.00960258
0.00961203
0.00962126
0.00963027
0.00963908
0.00964769
0.00965609
0.0096643
0.00967232
0.00968015
0.0096878
0.00969528
0.00970257
0.0097097
0.00971666
0.00972346
0.0097301
0.00973658
0.00974291
0.0097491
0.00975513
0.00976103
0.00976678
0.0097724
0.00977789
0.00978325
0.00978848
0.00979359
0.00979857
0.00980344
0.00980819
0.00981283
0.00981736
0.00982179
0.0098261
0.00983032
0.00983443
0.00983845
0.00984237
0.0098462
0.00984993
0.00985358
0.00985714
0.00986061
0.009864
0.00986731
0.00987055
0.0098737
0.00987678
0.00987978
0.00988271
0.00988558
0.00988837
0.0098911
0.00989376
0.00989635
0.00989889
0.00990136
0.00990378
0.00990613
0.00990843
0.00991068
0.00991287
0.009915
0.00991709
0.00991912
0.00992111
0.00992305
0.00992494
0.00992679
0.00992859
0.00993035
0.00993206
0.00993374
0.00993537
0.00993696
0.00993852
0.00994004
0.00994152
0.00994296
0.00994437
0.00994575
0.00994709
0.0099484
0.00994968
0.00995093
0.00995215
0.00995333
0.00995449
0.00995562
0.00995673
0.00995781
0.00995886
0.00995988
0.00996088
0.00996186
0.00996281
0.00996374
0.00996464
0.00996553
0.00996639
0.00996723
0.00996805
0.00996885
0.00996964
0.0099704
0.00997114
0.00997187
0.00997258
0.00997327
0.00997394
0.0099746
0.00997524
0.00997587
0.00997648
0.00997707
0.00997765
0.00997822
0.00997877
0.00997931
0.00997984
0.00998035
0.00998085
0.00998134
0.00998182
0.00998228
0.00998273
0.00998318
0.00998361
0.00998403
0.00998444
0.00998484
0.00998523
0.00998561
0.00998598
0.00998634
0.00998669
0.00998704
0.00998737
0.0099877
0.00998802
0.00998833
0.00998863
0.00998893
0.00998922
0.0099895
0.00998978
0.00999004
0.0099903
0.00999056
0.00999081
0.00999105
0.00999128
0.00999151
0.00999174
0.00999196
0.00999217
0.00999238
0.00999258
0.00999278
0.00999297
0.00999316
0.00999334
0.00999352
0.00999369
0.00999386
0.00999402
0.00999418
0.00999434
0.00999449
0.00999464
0.00999479
0.00999493
0.00999507
0.0099952
0.00999533
0.00999546
0.00999558
0.0099957
0.00999582
0.00999593
0.00999605
0.00999616
0.00999626
0.00999636
0.00999646
0.00999656
0.00999666
0.00999675
0.00999684
0.00999693
0.00999701
0.0099971
0.00999718
0.00999726
0.00999734
0.00999741
0.00999748
0.00999755
0.00999762
0.00999769
0.00999776
0.00999782
0.00999788
0.00999794
0.009998
0.00999806
0.00999811
0.00999817
0.00999822
0.00999827
0.00999832
0.00999837
0.00999842
0.00999846
0.00999851
0.00999855
0.00999859
0.00999863
0.00999867
0.00999871
0.00999875
0.00999879
0.00999882
0.00999886
0.00999889
0.00999892
0.00999895
0.00999898
0.00999901
0.00999904
0.00999907
0.00999909
0.00999912
0.00999914
0.00999916
0.00999919
0.00999921
0.00999923
0.00999925
0.00999926
0.00999928
0.00999929
0.00999931
0.00999932
0.00999933
0.00999934
0.00999934
0.00999935
0.00999935
)
;
    }
}


// ************************************************************************* //
