/*--------------------------------*- C++ -*----------------------------------*\
  =========                 |
  \\      /  F ield         | OpenFOAM: The Open Source CFD Toolbox
   \\    /   O peration     | Website:  https://openfoam.org
    \\  /    A nd           | Version:  dev
     \\/     M anipulation  |
\*---------------------------------------------------------------------------*/
FoamFile
{
    format      ascii;
    class       volScalarField;
    location    "0.36";
    object      Exp1;
}
// * * * * * * * * * * * * * * * * * * * * * * * * * * * * * * * * * * * * * //

dimensions      [0 0 0 0 0 0 0];

internalField   uniform 0;

boundaryField
{
    frontAndBack
    {
        type            empty;
    }
    inlet
    {
        type            calculated;
        value           uniform 0;
    }
    outlet
    {
        type            calculated;
        value           uniform 0;
    }
    substrate
    {
        type            calculated;
        value           nonuniform List<scalar> 
400
(
1.01014e-09
3.21723e-09
5.645e-09
8.28296e-09
1.11325e-08
1.42031e-08
1.75039e-08
2.10447e-08
2.48362e-08
2.889e-08
3.32185e-08
3.78349e-08
4.27523e-08
4.79846e-08
5.35458e-08
5.94501e-08
6.57118e-08
7.23456e-08
7.9366e-08
8.67878e-08
9.4626e-08
1.02895e-07
1.11612e-07
1.20789e-07
1.30445e-07
1.40593e-07
1.5125e-07
1.62431e-07
1.74153e-07
1.86433e-07
1.99286e-07
2.12729e-07
2.2678e-07
2.41454e-07
2.56771e-07
2.72746e-07
2.89398e-07
3.06744e-07
3.24803e-07
3.43592e-07
3.63131e-07
3.83437e-07
4.04529e-07
4.26427e-07
4.4915e-07
4.72716e-07
4.97146e-07
5.22458e-07
5.48674e-07
5.75813e-07
6.03894e-07
6.3294e-07
6.62969e-07
6.94003e-07
7.26063e-07
7.5917e-07
7.93344e-07
8.28607e-07
8.64982e-07
9.02488e-07
9.41148e-07
9.80984e-07
1.02202e-06
1.06427e-06
1.10777e-06
1.15253e-06
1.19857e-06
1.24593e-06
1.29462e-06
1.34466e-06
1.39608e-06
1.4489e-06
1.50314e-06
1.55882e-06
1.61598e-06
1.67462e-06
1.73478e-06
1.79648e-06
1.85973e-06
1.92456e-06
1.991e-06
2.05907e-06
2.12878e-06
2.20016e-06
2.27324e-06
2.34803e-06
2.42456e-06
2.50285e-06
2.58291e-06
2.66478e-06
2.74847e-06
2.834e-06
2.92139e-06
3.01067e-06
3.10184e-06
3.19494e-06
3.28998e-06
3.38697e-06
3.48594e-06
3.58691e-06
3.68989e-06
3.79489e-06
3.90194e-06
4.01104e-06
4.12222e-06
4.23549e-06
4.35086e-06
4.46834e-06
4.58795e-06
4.7097e-06
4.8336e-06
4.95965e-06
5.08787e-06
5.21827e-06
5.35086e-06
5.48563e-06
5.6226e-06
5.76177e-06
5.90314e-06
6.04672e-06
6.19251e-06
6.3405e-06
6.49071e-06
6.64312e-06
6.79773e-06
6.95455e-06
7.11356e-06
7.27476e-06
7.43813e-06
7.60368e-06
7.7714e-06
7.94126e-06
8.11326e-06
8.28738e-06
8.46362e-06
8.64194e-06
8.82233e-06
9.00478e-06
9.18926e-06
9.37575e-06
9.56422e-06
9.75465e-06
9.94701e-06
1.01413e-05
1.03374e-05
1.05354e-05
1.07352e-05
1.09367e-05
1.114e-05
1.1345e-05
1.15516e-05
1.17599e-05
1.19697e-05
1.21811e-05
1.2394e-05
1.26082e-05
1.28239e-05
1.30409e-05
1.32592e-05
1.34787e-05
1.36994e-05
1.39212e-05
1.4144e-05
1.43679e-05
1.45927e-05
1.48184e-05
1.50448e-05
1.52721e-05
1.54999e-05
1.57285e-05
1.59575e-05
1.6187e-05
1.64169e-05
1.66471e-05
1.68776e-05
1.71082e-05
1.7339e-05
1.75697e-05
1.78004e-05
1.80309e-05
1.82612e-05
1.84912e-05
1.87208e-05
1.895e-05
1.91785e-05
1.94065e-05
1.96337e-05
1.98601e-05
2.00855e-05
2.031e-05
2.05334e-05
2.07556e-05
2.09766e-05
2.11962e-05
2.14144e-05
2.16311e-05
2.18461e-05
2.20595e-05
2.2271e-05
2.24807e-05
2.26884e-05
2.2894e-05
2.30975e-05
2.32987e-05
2.34976e-05
2.36941e-05
2.38881e-05
2.40795e-05
2.42682e-05
2.44542e-05
2.46373e-05
2.48175e-05
2.49947e-05
2.51689e-05
2.53398e-05
2.55075e-05
2.56719e-05
2.58329e-05
2.59904e-05
2.61444e-05
2.62947e-05
2.64414e-05
2.65843e-05
2.67233e-05
2.68585e-05
2.69898e-05
2.7117e-05
2.72401e-05
2.73591e-05
2.7474e-05
2.75845e-05
2.76908e-05
2.77928e-05
2.78903e-05
2.79834e-05
2.8072e-05
2.81561e-05
2.82357e-05
2.83106e-05
2.83809e-05
2.84466e-05
2.85075e-05
2.85638e-05
2.86152e-05
2.8662e-05
2.87039e-05
2.8741e-05
2.87733e-05
2.88008e-05
2.88235e-05
2.88412e-05
2.88542e-05
2.88623e-05
2.88655e-05
2.88639e-05
2.88575e-05
2.88462e-05
2.88301e-05
2.88091e-05
2.87834e-05
2.87529e-05
2.87176e-05
2.86775e-05
2.86328e-05
2.85834e-05
2.85293e-05
2.84706e-05
2.84073e-05
2.83394e-05
2.82671e-05
2.81903e-05
2.8109e-05
2.80234e-05
2.79334e-05
2.78391e-05
2.77406e-05
2.76379e-05
2.75311e-05
2.74203e-05
2.73054e-05
2.71865e-05
2.70638e-05
2.69372e-05
2.68069e-05
2.66729e-05
2.65353e-05
2.63941e-05
2.62494e-05
2.61013e-05
2.59499e-05
2.57952e-05
2.56373e-05
2.54763e-05
2.53123e-05
2.51453e-05
2.49754e-05
2.48027e-05
2.46273e-05
2.44493e-05
2.42687e-05
2.40857e-05
2.39002e-05
2.37125e-05
2.35225e-05
2.33304e-05
2.31362e-05
2.29401e-05
2.2742e-05
2.25422e-05
2.23406e-05
2.21375e-05
2.19327e-05
2.17265e-05
2.15189e-05
2.13101e-05
2.11e-05
2.08887e-05
2.06765e-05
2.04632e-05
2.02491e-05
2.00341e-05
1.98185e-05
1.96021e-05
1.93853e-05
1.91679e-05
1.89501e-05
1.8732e-05
1.85136e-05
1.8295e-05
1.80763e-05
1.78576e-05
1.76388e-05
1.74202e-05
1.72018e-05
1.69836e-05
1.67657e-05
1.65482e-05
1.63311e-05
1.61145e-05
1.58985e-05
1.56831e-05
1.54684e-05
1.52544e-05
1.50412e-05
1.48289e-05
1.46175e-05
1.44071e-05
1.41977e-05
1.39894e-05
1.37822e-05
1.35762e-05
1.33715e-05
1.3168e-05
1.29658e-05
1.27651e-05
1.25657e-05
1.23678e-05
1.21715e-05
1.19767e-05
1.17835e-05
1.1592e-05
1.14022e-05
1.12141e-05
1.10279e-05
1.08434e-05
1.06609e-05
1.04804e-05
1.03019e-05
1.01254e-05
9.95104e-06
9.7789e-06
9.60902e-06
9.44148e-06
9.27637e-06
9.11376e-06
8.95376e-06
8.79647e-06
8.64201e-06
8.4905e-06
8.3421e-06
8.19695e-06
8.05524e-06
7.91716e-06
7.78292e-06
7.65278e-06
7.527e-06
7.40589e-06
7.28979e-06
7.17907e-06
7.07416e-06
6.97552e-06
6.88368e-06
6.79921e-06
6.72272e-06
6.6549e-06
6.59649e-06
6.54825e-06
6.51098e-06
6.48547e-06
6.47243e-06
)
;
    }
    Wall
    {
        type            calculated;
        value           nonuniform List<scalar> 
400
(
1.01013e-09
3.21717e-09
5.64491e-09
8.28281e-09
1.11323e-08
1.42028e-08
1.75036e-08
2.10442e-08
2.48355e-08
2.88892e-08
3.32176e-08
3.78338e-08
4.2751e-08
4.79831e-08
5.35441e-08
5.94481e-08
6.57096e-08
7.23431e-08
7.93632e-08
8.67847e-08
9.46226e-08
1.02892e-07
1.11608e-07
1.20785e-07
1.3044e-07
1.40588e-07
1.51244e-07
1.62426e-07
1.74147e-07
1.86427e-07
1.99279e-07
2.12722e-07
2.26772e-07
2.41447e-07
2.56763e-07
2.72738e-07
2.89389e-07
3.06735e-07
3.24793e-07
3.43582e-07
3.6312e-07
3.83426e-07
4.04518e-07
4.26415e-07
4.49137e-07
4.72703e-07
4.97132e-07
5.22444e-07
5.4866e-07
5.75798e-07
6.03879e-07
6.32923e-07
6.62952e-07
6.93986e-07
7.26045e-07
7.59151e-07
7.93324e-07
8.28587e-07
8.64961e-07
9.02466e-07
9.41126e-07
9.80961e-07
1.02199e-06
1.06425e-06
1.10774e-06
1.1525e-06
1.19855e-06
1.2459e-06
1.29459e-06
1.34463e-06
1.39605e-06
1.44887e-06
1.50311e-06
1.55879e-06
1.61594e-06
1.67459e-06
1.73475e-06
1.79644e-06
1.85969e-06
1.92452e-06
1.99096e-06
2.05902e-06
2.12874e-06
2.20012e-06
2.2732e-06
2.34799e-06
2.42451e-06
2.5028e-06
2.58286e-06
2.66473e-06
2.74842e-06
2.83394e-06
2.92133e-06
3.01061e-06
3.10178e-06
3.19488e-06
3.28991e-06
3.38691e-06
3.48588e-06
3.58684e-06
3.68981e-06
3.79482e-06
3.90186e-06
4.01097e-06
4.12214e-06
4.23541e-06
4.35078e-06
4.46826e-06
4.58787e-06
4.70961e-06
4.83351e-06
4.95956e-06
5.08778e-06
5.21818e-06
5.35076e-06
5.48553e-06
5.6225e-06
5.76167e-06
5.90304e-06
6.04661e-06
6.1924e-06
6.34039e-06
6.4906e-06
6.64301e-06
6.79762e-06
6.95443e-06
7.11344e-06
7.27464e-06
7.43801e-06
7.60356e-06
7.77127e-06
7.94113e-06
8.11313e-06
8.28725e-06
8.46348e-06
8.6418e-06
8.82219e-06
9.00464e-06
9.18912e-06
9.3756e-06
9.56407e-06
9.7545e-06
9.94686e-06
1.01411e-05
1.03373e-05
1.05352e-05
1.0735e-05
1.09366e-05
1.11399e-05
1.13448e-05
1.15515e-05
1.17597e-05
1.19696e-05
1.21809e-05
1.23938e-05
1.26081e-05
1.28237e-05
1.30407e-05
1.3259e-05
1.34785e-05
1.36992e-05
1.3921e-05
1.41438e-05
1.43677e-05
1.45925e-05
1.48182e-05
1.50446e-05
1.52718e-05
1.54997e-05
1.57282e-05
1.59573e-05
1.61868e-05
1.64167e-05
1.66469e-05
1.68774e-05
1.7108e-05
1.73387e-05
1.75695e-05
1.78002e-05
1.80307e-05
1.8261e-05
1.8491e-05
1.87206e-05
1.89497e-05
1.91783e-05
1.94062e-05
1.96334e-05
1.98598e-05
2.00853e-05
2.03098e-05
2.05332e-05
2.07554e-05
2.09764e-05
2.1196e-05
2.14142e-05
2.16308e-05
2.18459e-05
2.20592e-05
2.22708e-05
2.24804e-05
2.26881e-05
2.28937e-05
2.30972e-05
2.32984e-05
2.34973e-05
2.36938e-05
2.38878e-05
2.40792e-05
2.4268e-05
2.44539e-05
2.46371e-05
2.48173e-05
2.49945e-05
2.51686e-05
2.53396e-05
2.55073e-05
2.56716e-05
2.58326e-05
2.59901e-05
2.61441e-05
2.62945e-05
2.64411e-05
2.6584e-05
2.67231e-05
2.68583e-05
2.69895e-05
2.71167e-05
2.72399e-05
2.73589e-05
2.74737e-05
2.75843e-05
2.76906e-05
2.77925e-05
2.78901e-05
2.79832e-05
2.80718e-05
2.81559e-05
2.82354e-05
2.83104e-05
2.83807e-05
2.84463e-05
2.85073e-05
2.85635e-05
2.8615e-05
2.86617e-05
2.87037e-05
2.87408e-05
2.87731e-05
2.88006e-05
2.88232e-05
2.8841e-05
2.8854e-05
2.88621e-05
2.88653e-05
2.88637e-05
2.88573e-05
2.8846e-05
2.88299e-05
2.88089e-05
2.87832e-05
2.87527e-05
2.87174e-05
2.86774e-05
2.86326e-05
2.85832e-05
2.85291e-05
2.84704e-05
2.84071e-05
2.83393e-05
2.82669e-05
2.81901e-05
2.81088e-05
2.80232e-05
2.79332e-05
2.7839e-05
2.77405e-05
2.76378e-05
2.7531e-05
2.74201e-05
2.73052e-05
2.71864e-05
2.70637e-05
2.69371e-05
2.68068e-05
2.66728e-05
2.65352e-05
2.6394e-05
2.62493e-05
2.61012e-05
2.59498e-05
2.57951e-05
2.56372e-05
2.54762e-05
2.53122e-05
2.51452e-05
2.49753e-05
2.48026e-05
2.46273e-05
2.44492e-05
2.42687e-05
2.40856e-05
2.39002e-05
2.37124e-05
2.35224e-05
2.33303e-05
2.31361e-05
2.294e-05
2.2742e-05
2.25421e-05
2.23406e-05
2.21374e-05
2.19327e-05
2.17265e-05
2.15189e-05
2.131e-05
2.10999e-05
2.08887e-05
2.06764e-05
2.04632e-05
2.02491e-05
2.00341e-05
1.98184e-05
1.96021e-05
1.93852e-05
1.91679e-05
1.89501e-05
1.8732e-05
1.85136e-05
1.8295e-05
1.80763e-05
1.78576e-05
1.76389e-05
1.74202e-05
1.72018e-05
1.69836e-05
1.67657e-05
1.65482e-05
1.63311e-05
1.61145e-05
1.58985e-05
1.56831e-05
1.54684e-05
1.52544e-05
1.50413e-05
1.48289e-05
1.46176e-05
1.44071e-05
1.41978e-05
1.39894e-05
1.37823e-05
1.35763e-05
1.33715e-05
1.3168e-05
1.29659e-05
1.27651e-05
1.25657e-05
1.23679e-05
1.21715e-05
1.19767e-05
1.17835e-05
1.1592e-05
1.14022e-05
1.12141e-05
1.10279e-05
1.08435e-05
1.0661e-05
1.04804e-05
1.03019e-05
1.01254e-05
9.95108e-06
9.77894e-06
9.60906e-06
9.44152e-06
9.2764e-06
9.11379e-06
8.95379e-06
8.7965e-06
8.64204e-06
8.49054e-06
8.34214e-06
8.19699e-06
8.05528e-06
7.91719e-06
7.78296e-06
7.65282e-06
7.52704e-06
7.40593e-06
7.28983e-06
7.17911e-06
7.0742e-06
6.97557e-06
6.88373e-06
6.79925e-06
6.72277e-06
6.65495e-06
6.59654e-06
6.54831e-06
6.51104e-06
6.48553e-06
6.4725e-06
)
;
    }
}


// ************************************************************************* //
