/*--------------------------------*- C++ -*----------------------------------*\
  =========                 |
  \\      /  F ield         | OpenFOAM: The Open Source CFD Toolbox
   \\    /   O peration     | Website:  https://openfoam.org
    \\  /    A nd           | Version:  dev
     \\/     M anipulation  |
\*---------------------------------------------------------------------------*/
FoamFile
{
    format      ascii;
    class       volScalarField;
    location    "0.36";
    object      growth;
}
// * * * * * * * * * * * * * * * * * * * * * * * * * * * * * * * * * * * * * //

dimensions      [0 0 0 0 0 0 0];

internalField   uniform 0;

boundaryField
{
    frontAndBack
    {
        type            empty;
    }
    inlet
    {
        type            calculated;
        value           uniform 0;
    }
    outlet
    {
        type            calculated;
        value           uniform 0;
    }
    substrate
    {
        type            calculated;
        value           nonuniform List<scalar> 
400
(
0.723392
0.709436
0.699197
0.689838
0.680945
0.672481
0.664346
0.656453
0.648737
0.641155
0.633672
0.626261
0.618904
0.611584
0.60429
0.597014
0.589749
0.582492
0.575238
0.567987
0.560739
0.553493
0.54625
0.539011
0.531779
0.524555
0.517342
0.510141
0.502955
0.495786
0.488637
0.48151
0.474409
0.467334
0.46029
0.453278
0.4463
0.43936
0.432458
0.425598
0.418781
0.41201
0.405287
0.398613
0.391991
0.385421
0.378907
0.372449
0.366048
0.359708
0.353428
0.34721
0.341055
0.334965
0.32894
0.322982
0.317091
0.311269
0.305515
0.299832
0.294218
0.288676
0.283205
0.277805
0.272478
0.267224
0.262042
0.256933
0.251897
0.246934
0.242044
0.237227
0.232483
0.227812
0.223214
0.218688
0.214234
0.209852
0.205542
0.201302
0.197134
0.193035
0.189006
0.185047
0.181156
0.177333
0.173578
0.169889
0.166267
0.162711
0.159219
0.155792
0.152428
0.149127
0.145888
0.142711
0.139594
0.136536
0.133538
0.130598
0.127716
0.12489
0.12212
0.119405
0.116745
0.114137
0.111583
0.10908
0.106628
0.104227
0.101875
0.0995712
0.0973155
0.0951068
0.0929443
0.0908272
0.0887548
0.0867262
0.0847408
0.0827976
0.0808961
0.0790353
0.0772146
0.0754333
0.0736905
0.0719857
0.070318
0.0686867
0.0670913
0.0655309
0.0640049
0.0625126
0.0610534
0.0596266
0.0582315
0.0568676
0.0555342
0.0542307
0.0529565
0.0517109
0.0504934
0.0493035
0.0481405
0.0470039
0.0458931
0.0448076
0.0437469
0.0427104
0.0416976
0.040708
0.0397412
0.0387966
0.0378737
0.0369721
0.0360914
0.035231
0.0343905
0.0335695
0.0327676
0.0319843
0.0312193
0.030472
0.0297423
0.0290295
0.0283334
0.0276536
0.0269897
0.0263414
0.0257084
0.0250901
0.0244865
0.023897
0.0233214
0.0227595
0.0222107
0.0216749
0.0211518
0.0206411
0.0201425
0.0196556
0.0191803
0.0187163
0.0182633
0.0178211
0.0173894
0.0169679
0.0165565
0.0161549
0.0157628
0.0153801
0.0150066
0.0146419
0.014286
0.0139385
0.0135994
0.0132684
0.0129453
0.0126299
0.0123221
0.0120217
0.0117284
0.0114422
0.0111629
0.0108903
0.0106242
0.0103645
0.010111
0.00986367
0.00962226
0.00938666
0.00915672
0.00893232
0.00871333
0.00849961
0.00829103
0.00808749
0.00788885
0.00769501
0.00750584
0.00732124
0.00714109
0.00696529
0.00679374
0.00662633
0.00646297
0.00630356
0.00614801
0.00599621
0.00584809
0.00570355
0.00556251
0.00542489
0.0052906
0.00515956
0.0050317
0.00490694
0.0047852
0.00466642
0.00455052
0.00443743
0.00432708
0.00421942
0.00411436
0.00401187
0.00391186
0.00381428
0.00371907
0.00362618
0.00353555
0.00344713
0.00336086
0.00327669
0.00319457
0.00311445
0.00303628
0.00296002
0.00288562
0.00281303
0.00274222
0.00267314
0.00260574
0.00253999
0.00247585
0.00241327
0.00235223
0.00229268
0.00223459
0.00217792
0.00212265
0.00206872
0.00201612
0.00196481
0.00191476
0.00186594
0.00181832
0.00177187
0.00172656
0.00168237
0.00163927
0.00159722
0.00155622
0.00151623
0.00147722
0.00143918
0.00140208
0.00136589
0.0013306
0.00129619
0.00126262
0.00122989
0.00119798
0.00116685
0.0011365
0.0011069
0.00107804
0.0010499
0.00102246
0.000995703
0.000969615
0.000944179
0.000919379
0.0008952
0.000871626
0.000848644
0.000826238
0.000804395
0.000783102
0.000762344
0.000742109
0.000722385
0.000703158
0.000684417
0.00066615
0.000648346
0.000630993
0.00061408
0.000597597
0.000581533
0.000565878
0.000550622
0.000535755
0.000521268
0.000507151
0.000493396
0.000479994
0.000466936
0.000454213
0.000441818
0.000429742
0.000417978
0.000406518
0.000395354
0.00038448
0.000373887
0.00036357
0.000353521
0.000343734
0.000334203
0.00032492
0.00031588
0.000307078
0.000298506
0.00029016
0.000282033
0.000274121
0.000266417
0.000258918
0.000251617
0.00024451
0.000237593
0.000230859
0.000224306
0.000217928
0.00021172
0.00020568
0.000199802
0.000194083
0.000188519
0.000183106
0.00017784
0.000172717
0.000167735
0.00016289
0.000158179
0.000153598
0.000149145
0.000144817
0.00014061
0.000136522
0.000132552
0.000128695
0.000124951
0.000121316
0.00011779
0.00011437
0.000111055
0.000107843
0.000104734
0.000101726
9.88184e-05
9.60117e-05
9.33055e-05
9.07003e-05
8.81968e-05
8.57963e-05
8.35006e-05
8.13119e-05
7.92333e-05
7.72684e-05
7.54216e-05
7.36983e-05
7.21044e-05
7.06474e-05
6.93353e-05
6.81773e-05
6.71839e-05
6.63662e-05
6.57361e-05
6.53055e-05
6.50858e-05
)
;
    }
    Wall
    {
        type            calculated;
        value           nonuniform List<scalar> 
400
(
0.723392
0.709436
0.699198
0.689839
0.680945
0.67248
0.664345
0.656451
0.648735
0.641153
0.633669
0.626259
0.618901
0.611581
0.604288
0.597012
0.589747
0.582489
0.575236
0.567986
0.560737
0.553491
0.546249
0.53901
0.531779
0.524555
0.517341
0.51014
0.502954
0.495786
0.488637
0.481511
0.474409
0.467335
0.460291
0.453279
0.446301
0.43936
0.432459
0.425599
0.418783
0.412012
0.405288
0.398615
0.391992
0.385423
0.378908
0.37245
0.36605
0.359709
0.353429
0.347211
0.341057
0.334967
0.328942
0.322984
0.317093
0.311271
0.305517
0.299834
0.29422
0.288678
0.283207
0.277807
0.27248
0.267226
0.262044
0.256935
0.251899
0.246936
0.242046
0.237229
0.232486
0.227815
0.223216
0.21869
0.214236
0.209854
0.205544
0.201304
0.197136
0.193037
0.189008
0.185049
0.181158
0.177335
0.173579
0.169891
0.166269
0.162712
0.159221
0.155793
0.15243
0.149129
0.14589
0.142712
0.139595
0.136538
0.13354
0.1306
0.127717
0.124891
0.122121
0.119406
0.116746
0.114139
0.111584
0.109081
0.106629
0.104228
0.101876
0.0995723
0.0973166
0.0951078
0.0929453
0.0908283
0.0887558
0.0867272
0.0847418
0.0827986
0.080897
0.0790362
0.0772155
0.0754342
0.0736914
0.0719865
0.0703188
0.0686876
0.0670921
0.0655317
0.0640056
0.0625134
0.0610541
0.0596273
0.0582322
0.0568683
0.0555349
0.0542314
0.0529571
0.0517115
0.0504941
0.0493041
0.0481411
0.0470045
0.0458937
0.0448082
0.0437474
0.0427109
0.0416981
0.0407085
0.0397417
0.0387971
0.0378742
0.0369726
0.0360918
0.0352314
0.034391
0.03357
0.032768
0.0319847
0.0312197
0.0304724
0.0297426
0.0290299
0.0283338
0.027654
0.0269901
0.0263418
0.0257087
0.0250905
0.0244868
0.0238973
0.0233218
0.0227598
0.022211
0.0216752
0.0211521
0.0206414
0.0201427
0.0196559
0.0191806
0.0187166
0.0182636
0.0178214
0.0173896
0.0169682
0.0165568
0.0161551
0.0157631
0.0153804
0.0150068
0.0146421
0.0142862
0.0139387
0.0135996
0.0132686
0.0129455
0.0126301
0.0123223
0.0120218
0.0117286
0.0114424
0.0111631
0.0108904
0.0106243
0.0103646
0.0101112
0.00986383
0.00962241
0.0093868
0.00915687
0.00893246
0.00871346
0.00849974
0.00829117
0.00808762
0.00788898
0.00769513
0.00750596
0.00732136
0.00714121
0.00696541
0.00679385
0.00662644
0.00646308
0.00630367
0.00614811
0.00599631
0.00584819
0.00570365
0.00556261
0.00542498
0.00529069
0.00515965
0.00503179
0.00490703
0.00478529
0.0046665
0.0045506
0.00443751
0.00432716
0.00421949
0.00411444
0.00401194
0.00391193
0.00381435
0.00371914
0.00362625
0.00353562
0.00344719
0.00336092
0.00327675
0.00319463
0.00311451
0.00303634
0.00296008
0.00288567
0.00281309
0.00274227
0.00267319
0.00260579
0.00254004
0.0024759
0.00241332
0.00235228
0.00229273
0.00223464
0.00217797
0.00212269
0.00206876
0.00201616
0.00196485
0.0019148
0.00186598
0.00181836
0.0017719
0.0017266
0.0016824
0.0016393
0.00159726
0.00155625
0.00151626
0.00147725
0.00143921
0.0014021
0.00136592
0.00133063
0.00129621
0.00126265
0.00122992
0.001198
0.00116687
0.00113652
0.00110692
0.00107806
0.00104992
0.00102248
0.000995723
0.000969635
0.000944198
0.000919398
0.000895218
0.000871644
0.000848662
0.000826256
0.000804412
0.000783118
0.00076236
0.000742125
0.0007224
0.000703173
0.000684432
0.000666164
0.00064836
0.000631006
0.000614093
0.00059761
0.000581545
0.00056589
0.000550634
0.000535766
0.000521279
0.000507162
0.000493407
0.000480005
0.000466946
0.000454223
0.000441828
0.000429752
0.000417988
0.000406527
0.000395363
0.000384488
0.000373896
0.000363578
0.000353529
0.000343742
0.00033421
0.000324928
0.000315888
0.000307085
0.000298513
0.000290166
0.000282039
0.000274127
0.000266423
0.000258924
0.000251623
0.000244516
0.000237598
0.000230865
0.000224311
0.000217932
0.000211725
0.000205685
0.000199807
0.000194088
0.000188523
0.00018311
0.000177844
0.000172721
0.000167739
0.000162894
0.000158183
0.000153602
0.000149148
0.00014482
0.000140613
0.000136525
0.000132555
0.000128698
0.000124954
0.000121319
0.000117793
0.000114373
0.000111057
0.000107846
0.000104736
0.000101728
9.88206e-05
9.60138e-05
9.33076e-05
9.07023e-05
8.81988e-05
8.57982e-05
8.35024e-05
8.13138e-05
7.92351e-05
7.72702e-05
7.54234e-05
7.37e-05
7.21061e-05
7.06491e-05
6.93369e-05
6.8179e-05
6.71856e-05
6.63679e-05
6.57377e-05
6.53071e-05
6.50872e-05
)
;
    }
}


// ************************************************************************* //
