/*--------------------------------*- C++ -*----------------------------------*\
  =========                 |
  \\      /  F ield         | OpenFOAM: The Open Source CFD Toolbox
   \\    /   O peration     | Website:  https://openfoam.org
    \\  /    A nd           | Version:  dev
     \\/     M anipulation  |
\*---------------------------------------------------------------------------*/
FoamFile
{
    format      ascii;
    class       volScalarField;
    location    "0.36";
    object      N1;
}
// * * * * * * * * * * * * * * * * * * * * * * * * * * * * * * * * * * * * * //

dimensions      [0 0 0 0 0 0 0];

internalField   nonuniform List<scalar> 
8000
(
7.66949e-09
2.44328e-08
4.28781e-08
6.2926e-08
8.45874e-08
1.07935e-07
1.33039e-07
1.59973e-07
1.8882e-07
2.19669e-07
2.52616e-07
2.8776e-07
3.25203e-07
3.65052e-07
4.07413e-07
4.52395e-07
5.0011e-07
5.50668e-07
6.04183e-07
6.60768e-07
7.20538e-07
7.83609e-07
8.50097e-07
9.2012e-07
9.93797e-07
1.07125e-06
1.1526e-06
1.23796e-06
1.32748e-06
1.42126e-06
1.51944e-06
1.62214e-06
1.7295e-06
1.84164e-06
1.95871e-06
2.08084e-06
2.20815e-06
2.34079e-06
2.47891e-06
2.62263e-06
2.7721e-06
2.92747e-06
3.08888e-06
3.25647e-06
3.4304e-06
3.61081e-06
3.79786e-06
3.99169e-06
4.19246e-06
4.40032e-06
4.61544e-06
4.83796e-06
5.06805e-06
5.30586e-06
5.55156e-06
5.80531e-06
6.06728e-06
6.33762e-06
6.61651e-06
6.9041e-06
7.20057e-06
7.50609e-06
7.82082e-06
8.14495e-06
8.47862e-06
8.82203e-06
9.17534e-06
9.53873e-06
9.91236e-06
1.02964e-05
1.06911e-05
1.10965e-05
1.15129e-05
1.19404e-05
1.23792e-05
1.28295e-05
1.32914e-05
1.37652e-05
1.42509e-05
1.47488e-05
1.52591e-05
1.57819e-05
1.63174e-05
1.68658e-05
1.74271e-05
1.80017e-05
1.85897e-05
1.91912e-05
1.98064e-05
2.04355e-05
2.10785e-05
2.17358e-05
2.24074e-05
2.30935e-05
2.37943e-05
2.45098e-05
2.52403e-05
2.59858e-05
2.67466e-05
2.75227e-05
2.83143e-05
2.91215e-05
2.99444e-05
3.07832e-05
3.16379e-05
3.25088e-05
3.33958e-05
3.42991e-05
3.52187e-05
3.61548e-05
3.71075e-05
3.80768e-05
3.90627e-05
4.00655e-05
4.1085e-05
4.21214e-05
4.31747e-05
4.42449e-05
4.53321e-05
4.64363e-05
4.75575e-05
4.86957e-05
4.98509e-05
5.10231e-05
5.22122e-05
5.34183e-05
5.46413e-05
5.58811e-05
5.71377e-05
5.8411e-05
5.9701e-05
6.10075e-05
6.23305e-05
6.36698e-05
6.50254e-05
6.6397e-05
6.77846e-05
6.9188e-05
7.0607e-05
7.20415e-05
7.34913e-05
7.49561e-05
7.64358e-05
7.79302e-05
7.94389e-05
8.09619e-05
8.24987e-05
8.40492e-05
8.5613e-05
8.71899e-05
8.87795e-05
9.03816e-05
9.19958e-05
9.36218e-05
9.52592e-05
9.69076e-05
9.85667e-05
0.000100236
0.000101915
0.000103604
0.000105302
0.000107008
0.000108722
0.000110445
0.000112174
0.00011391
0.000115652
0.0001174
0.000119154
0.000120911
0.000122674
0.000124439
0.000126208
0.000127979
0.000129752
0.000131526
0.000133301
0.000135077
0.000136851
0.000138625
0.000140397
0.000142166
0.000143933
0.000145695
0.000147454
0.000149207
0.000150955
0.000152697
0.000154432
0.000156159
0.000157877
0.000159587
0.000161287
0.000162977
0.000164655
0.000166322
0.000167977
0.000169618
0.000171246
0.000172859
0.000174457
0.000176039
0.000177604
0.000179152
0.000180683
0.000182194
0.000183687
0.000185159
0.000186611
0.000188042
0.000189451
0.000190838
0.000192201
0.000193541
0.000194856
0.000196146
0.000197411
0.00019865
0.000199862
0.000201046
0.000202203
0.000203331
0.000204431
0.000205501
0.000206541
0.000207551
0.00020853
0.000209477
0.000210393
0.000211277
0.000212128
0.000212945
0.00021373
0.000214481
0.000215197
0.000215879
0.000216526
0.000217138
0.000217715
0.000218256
0.000218762
0.000219231
0.000219664
0.00022006
0.00022042
0.000220742
0.000221028
0.000221277
0.000221489
0.000221663
0.0002218
0.0002219
0.000221963
0.000221988
0.000221976
0.000221927
0.000221841
0.000221717
0.000221556
0.000221358
0.000221124
0.000220853
0.000220545
0.000220201
0.000219821
0.000219406
0.000218954
0.000218468
0.000217946
0.00021739
0.000216799
0.000216175
0.000215516
0.000214824
0.0002141
0.000213342
0.000212553
0.000211731
0.000210879
0.000209996
0.000209082
0.000208138
0.000207165
0.000206163
0.000205132
0.000204074
0.000202988
0.000201876
0.000200737
0.000199572
0.000198383
0.000197169
0.000195931
0.000194669
0.000193385
0.000192079
0.000190751
0.000189402
0.000188033
0.000186644
0.000185236
0.00018381
0.000182366
0.000180905
0.000179428
0.000177935
0.000176426
0.000174903
0.000173366
0.000171816
0.000170254
0.000168679
0.000167093
0.000165497
0.000163891
0.000162275
0.00016065
0.000159018
0.000157378
0.000155731
0.000154078
0.000152419
0.000150756
0.000149088
0.000147416
0.000145741
0.000144064
0.000142384
0.000140703
0.000139021
0.000137339
0.000135657
0.000133976
0.000132296
0.000130617
0.000128942
0.000127269
0.000125599
0.000123933
0.000122272
0.000120616
0.000118964
0.000117319
0.000115679
0.000114046
0.000112421
0.000110802
0.000109192
0.00010759
0.000105997
0.000104412
0.000102838
0.000101273
9.97179e-05
9.81738e-05
9.66407e-05
9.51188e-05
9.36087e-05
9.21106e-05
9.06249e-05
8.9152e-05
8.76921e-05
8.62458e-05
8.48133e-05
8.33951e-05
8.19915e-05
8.06029e-05
7.92298e-05
7.78726e-05
7.65318e-05
7.52079e-05
7.39014e-05
7.26129e-05
7.1343e-05
7.00924e-05
6.88619e-05
6.76522e-05
6.64642e-05
6.52991e-05
6.41577e-05
6.30414e-05
6.19515e-05
6.08896e-05
5.98572e-05
5.88563e-05
5.78889e-05
5.69575e-05
5.60646e-05
5.52131e-05
5.44062e-05
5.36476e-05
5.29413e-05
5.22916e-05
5.17034e-05
5.11818e-05
5.07325e-05
5.03615e-05
5.00749e-05
4.98787e-05
4.97785e-05
7.51323e-09
2.40849e-08
4.23748e-08
6.23547e-08
8.40201e-08
1.07418e-07
1.32611e-07
1.59669e-07
1.88673e-07
2.19713e-07
2.52886e-07
2.88292e-07
3.26037e-07
3.66228e-07
4.08976e-07
4.54392e-07
5.02589e-07
5.53683e-07
6.0779e-07
6.65025e-07
7.25508e-07
7.89358e-07
8.56694e-07
9.2764e-07
1.00232e-06
1.08085e-06
1.16336e-06
1.24999e-06
1.34085e-06
1.43608e-06
1.53581e-06
1.64018e-06
1.74931e-06
1.86335e-06
1.98243e-06
2.10669e-06
2.23628e-06
2.37134e-06
2.512e-06
2.65843e-06
2.81076e-06
2.96915e-06
3.13374e-06
3.30468e-06
3.48214e-06
3.66627e-06
3.85721e-06
4.05514e-06
4.26021e-06
4.47257e-06
4.6924e-06
4.91986e-06
5.1551e-06
5.39831e-06
5.64963e-06
5.90925e-06
6.17734e-06
6.45405e-06
6.73957e-06
7.03407e-06
7.33773e-06
7.65071e-06
7.97319e-06
8.30536e-06
8.64738e-06
8.99944e-06
9.36172e-06
9.73439e-06
1.01176e-05
1.05116e-05
1.09166e-05
1.13327e-05
1.176e-05
1.21989e-05
1.26494e-05
1.31117e-05
1.35861e-05
1.40727e-05
1.45717e-05
1.50833e-05
1.56076e-05
1.61449e-05
1.66952e-05
1.72589e-05
1.7836e-05
1.84267e-05
1.90313e-05
1.96498e-05
2.02825e-05
2.09296e-05
2.15911e-05
2.22672e-05
2.29582e-05
2.36642e-05
2.43852e-05
2.51216e-05
2.58734e-05
2.66407e-05
2.74238e-05
2.82228e-05
2.90378e-05
2.98688e-05
3.07162e-05
3.15799e-05
3.24602e-05
3.3357e-05
3.42706e-05
3.52009e-05
3.61483e-05
3.71126e-05
3.8094e-05
3.90926e-05
4.01085e-05
4.11416e-05
4.21922e-05
4.32602e-05
4.43456e-05
4.54486e-05
4.65691e-05
4.77071e-05
4.88628e-05
5.0036e-05
5.12268e-05
5.24352e-05
5.36611e-05
5.49045e-05
5.61654e-05
5.74437e-05
5.87394e-05
6.00523e-05
6.13825e-05
6.27298e-05
6.40941e-05
6.54753e-05
6.68733e-05
6.8288e-05
6.97192e-05
7.11667e-05
7.26303e-05
7.411e-05
7.56055e-05
7.71166e-05
7.86431e-05
8.01847e-05
8.17412e-05
8.33125e-05
8.48981e-05
8.64978e-05
8.81114e-05
8.97385e-05
9.13788e-05
9.3032e-05
9.46977e-05
9.63757e-05
9.80654e-05
9.97667e-05
0.000101479
0.000103202
0.000104935
0.000106678
0.00010843
0.000110192
0.000111961
0.000113739
0.000115524
0.000117317
0.000119115
0.00012092
0.00012273
0.000124545
0.000126364
0.000128187
0.000130014
0.000131843
0.000133673
0.000135506
0.000137339
0.000139172
0.000141005
0.000142837
0.000144667
0.000146494
0.000148319
0.00015014
0.000151956
0.000153768
0.000155573
0.000157373
0.000159165
0.000160949
0.000162725
0.000164491
0.000166248
0.000167994
0.000169729
0.000171451
0.000173161
0.000174857
0.00017654
0.000178207
0.000179859
0.000181494
0.000183112
0.000184713
0.000186295
0.000187858
0.000189401
0.000190924
0.000192426
0.000193905
0.000195363
0.000196797
0.000198207
0.000199593
0.000200953
0.000202288
0.000203597
0.000204879
0.000206133
0.000207359
0.000208556
0.000209725
0.000210863
0.000211971
0.000213048
0.000214094
0.000215108
0.00021609
0.000217038
0.000217954
0.000218836
0.000219684
0.000220497
0.000221276
0.000222019
0.000222727
0.000223399
0.000224035
0.000224634
0.000225196
0.000225722
0.00022621
0.000226661
0.000227074
0.000227449
0.000227786
0.000228085
0.000228346
0.000228568
0.000228752
0.000228898
0.000229005
0.000229073
0.000229103
0.000229095
0.000229048
0.000228963
0.000228839
0.000228677
0.000228476
0.000228238
0.000227962
0.000227648
0.000227297
0.000226909
0.000226483
0.000226021
0.000225522
0.000224988
0.000224417
0.000223811
0.000223169
0.000222493
0.000221782
0.000221038
0.000220259
0.000219448
0.000218603
0.000217726
0.000216817
0.000215877
0.000214906
0.000213905
0.000212873
0.000211813
0.000210723
0.000209605
0.000208459
0.000207286
0.000206087
0.000204862
0.000203611
0.000202335
0.000201036
0.000199712
0.000198366
0.000196998
0.000195608
0.000194197
0.000192765
0.000191314
0.000189844
0.000188355
0.000186849
0.000185325
0.000183786
0.00018223
0.00018066
0.000179075
0.000177476
0.000175865
0.000174241
0.000172605
0.000170959
0.000169301
0.000167635
0.000165959
0.000164275
0.000162583
0.000160884
0.000159178
0.000157467
0.00015575
0.000154029
0.000152304
0.000150575
0.000148844
0.000147111
0.000145376
0.00014364
0.000141904
0.000140168
0.000138432
0.000136698
0.000134966
0.000133236
0.000131509
0.000129786
0.000128066
0.000126351
0.000124641
0.000122936
0.000121237
0.000119544
0.000117859
0.00011618
0.000114509
0.000112846
0.000111192
0.000109547
0.000107911
0.000106284
0.000104668
0.000103063
0.000101468
9.98845e-05
9.83127e-05
9.6753e-05
9.52056e-05
9.36711e-05
9.21496e-05
9.06417e-05
8.91477e-05
8.76679e-05
8.62028e-05
8.47527e-05
8.33182e-05
8.18995e-05
8.04973e-05
7.91119e-05
7.77439e-05
7.63938e-05
7.50622e-05
7.37499e-05
7.24573e-05
7.11854e-05
6.9935e-05
6.87069e-05
6.75022e-05
6.6322e-05
6.51675e-05
6.40402e-05
6.29416e-05
6.18733e-05
6.08374e-05
5.98359e-05
5.88713e-05
5.79462e-05
5.70636e-05
5.62268e-05
5.54396e-05
5.47061e-05
5.40307e-05
5.34184e-05
5.28748e-05
5.24057e-05
5.20173e-05
5.17164e-05
5.15094e-05
5.14031e-05
7.37273e-09
2.36523e-08
4.16036e-08
6.12769e-08
8.26987e-08
1.05908e-07
1.30957e-07
1.57913e-07
1.86852e-07
2.17862e-07
2.51038e-07
2.86481e-07
3.24296e-07
3.64593e-07
4.07482e-07
4.53078e-07
5.01495e-07
5.5285e-07
6.07262e-07
6.6485e-07
7.25733e-07
7.90035e-07
8.57879e-07
9.29389e-07
1.00469e-06
1.08392e-06
1.16719e-06
1.25464e-06
1.34641e-06
1.44262e-06
1.54342e-06
1.64894e-06
1.75931e-06
1.87469e-06
1.99521e-06
2.12102e-06
2.25226e-06
2.38908e-06
2.53163e-06
2.68006e-06
2.83452e-06
2.99518e-06
3.16217e-06
3.33566e-06
3.51581e-06
3.70278e-06
3.89672e-06
4.09781e-06
4.30621e-06
4.52208e-06
4.74559e-06
4.97691e-06
5.21621e-06
5.46367e-06
5.71945e-06
5.98372e-06
6.25667e-06
6.53847e-06
6.8293e-06
7.12934e-06
7.43876e-06
7.75775e-06
8.08649e-06
8.42516e-06
8.77395e-06
9.13303e-06
9.50261e-06
9.88285e-06
1.02739e-05
1.06761e-05
1.10895e-05
1.15143e-05
1.19506e-05
1.23988e-05
1.2859e-05
1.33313e-05
1.3816e-05
1.43133e-05
1.48232e-05
1.53461e-05
1.58821e-05
1.64314e-05
1.69941e-05
1.75705e-05
1.81608e-05
1.8765e-05
1.93835e-05
2.00163e-05
2.06636e-05
2.13257e-05
2.20027e-05
2.26948e-05
2.3402e-05
2.41247e-05
2.48629e-05
2.56169e-05
2.63867e-05
2.71725e-05
2.79745e-05
2.87928e-05
2.96275e-05
3.04789e-05
3.1347e-05
3.22319e-05
3.31338e-05
3.40528e-05
3.4989e-05
3.59425e-05
3.69134e-05
3.79018e-05
3.89078e-05
3.99314e-05
4.09729e-05
4.20321e-05
4.31092e-05
4.42043e-05
4.53173e-05
4.64484e-05
4.75975e-05
4.87647e-05
4.995e-05
5.11534e-05
5.23749e-05
5.36145e-05
5.48721e-05
5.61478e-05
5.74414e-05
5.8753e-05
6.00825e-05
6.14298e-05
6.27948e-05
6.41774e-05
6.55776e-05
6.69952e-05
6.84301e-05
6.98822e-05
7.13512e-05
7.28372e-05
7.43398e-05
7.58588e-05
7.73942e-05
7.89457e-05
8.0513e-05
8.2096e-05
8.36944e-05
8.53079e-05
8.69362e-05
8.85792e-05
9.02364e-05
9.19076e-05
9.35924e-05
9.52906e-05
9.70017e-05
9.87254e-05
0.000100461
0.000102209
0.000103968
0.000105739
0.000107519
0.00010931
0.000111111
0.000112921
0.00011474
0.000116567
0.000118402
0.000120244
0.000122093
0.000123948
0.000125809
0.000127674
0.000129545
0.000131419
0.000133297
0.000135177
0.00013706
0.000138944
0.000140829
0.000142715
0.0001446
0.000146484
0.000148366
0.000150246
0.000152123
0.000153997
0.000155865
0.000157729
0.000159587
0.000161438
0.000163283
0.000165119
0.000166947
0.000168765
0.000170573
0.00017237
0.000174156
0.000175929
0.00017769
0.000179437
0.000181169
0.000182886
0.000184587
0.000186271
0.000187938
0.000189587
0.000191217
0.000192827
0.000194418
0.000195987
0.000197534
0.00019906
0.000200562
0.00020204
0.000203494
0.000204923
0.000206326
0.000207703
0.000209053
0.000210376
0.00021167
0.000212935
0.000214171
0.000215377
0.000216552
0.000217696
0.000218809
0.000219889
0.000220937
0.000221952
0.000222933
0.000223879
0.000224792
0.000225669
0.000226511
0.000227317
0.000228087
0.000228821
0.000229517
0.000230177
0.000230799
0.000231383
0.000231929
0.000232437
0.000232906
0.000233337
0.000233729
0.000234081
0.000234395
0.000234669
0.000234904
0.000235099
0.000235255
0.000235371
0.000235448
0.000235485
0.000235482
0.00023544
0.000235359
0.000235237
0.000235077
0.000234877
0.000234638
0.00023436
0.000234043
0.000233688
0.000233295
0.000232863
0.000232394
0.000231887
0.000231343
0.000230762
0.000230144
0.000229491
0.000228801
0.000228076
0.000227315
0.00022652
0.000225691
0.000224828
0.000223932
0.000223003
0.000222041
0.000221048
0.000220023
0.000218967
0.000217881
0.000216766
0.000215621
0.000214447
0.000213246
0.000212017
0.000210762
0.00020948
0.000208172
0.00020684
0.000205483
0.000204103
0.0002027
0.000201274
0.000199827
0.000198358
0.00019687
0.000195361
0.000193834
0.000192288
0.000190725
0.000189145
0.000187548
0.000185936
0.000184309
0.000182668
0.000181013
0.000179346
0.000177666
0.000175975
0.000174274
0.000172562
0.00017084
0.00016911
0.000167372
0.000165627
0.000163875
0.000162116
0.000160353
0.000158584
0.000156811
0.000155035
0.000153256
0.000151475
0.000149691
0.000147907
0.000146123
0.000144338
0.000142554
0.000140771
0.000138991
0.000137212
0.000135436
0.000133664
0.000131896
0.000130132
0.000128374
0.00012662
0.000124873
0.000123132
0.000121398
0.000119672
0.000117953
0.000116242
0.000114541
0.000112848
0.000111165
0.000109492
0.000107829
0.000106177
0.000104536
0.000102907
0.000101289
9.96844e-05
9.8092e-05
9.65127e-05
9.49468e-05
9.33947e-05
9.18569e-05
9.03337e-05
8.88255e-05
8.73327e-05
8.58557e-05
8.43951e-05
8.29513e-05
8.15247e-05
8.01159e-05
7.87254e-05
7.73539e-05
7.60021e-05
7.46705e-05
7.336e-05
7.20714e-05
7.08057e-05
6.95638e-05
6.8347e-05
6.71565e-05
6.59936e-05
6.486e-05
6.37574e-05
6.26877e-05
6.16532e-05
6.06561e-05
5.96994e-05
5.87859e-05
5.79192e-05
5.71029e-05
5.63413e-05
5.5639e-05
5.50012e-05
5.44336e-05
5.39424e-05
5.35344e-05
5.32167e-05
5.29971e-05
5.28833e-05
7.23302e-09
2.31993e-08
4.07779e-08
6.00579e-08
8.11022e-08
1.03964e-07
1.28702e-07
1.55383e-07
1.84083e-07
2.14888e-07
2.47893e-07
2.83197e-07
3.20905e-07
3.61126e-07
4.03972e-07
4.49557e-07
4.97996e-07
5.49407e-07
6.03909e-07
6.61623e-07
7.22672e-07
7.8718e-07
8.55272e-07
9.27075e-07
1.00272e-06
1.08233e-06
1.16605e-06
1.254e-06
1.34632e-06
1.44316e-06
1.54464e-06
1.65091e-06
1.76211e-06
1.87839e-06
1.99989e-06
2.12677e-06
2.25916e-06
2.39722e-06
2.54111e-06
2.69098e-06
2.84699e-06
3.00929e-06
3.17804e-06
3.35341e-06
3.53556e-06
3.72465e-06
3.92085e-06
4.12432e-06
4.33525e-06
4.55379e-06
4.78011e-06
5.0144e-06
5.25683e-06
5.50757e-06
5.7668e-06
6.03471e-06
6.31146e-06
6.59724e-06
6.89224e-06
7.19664e-06
7.51062e-06
7.83437e-06
8.16808e-06
8.51193e-06
8.86611e-06
9.23081e-06
9.60622e-06
9.99254e-06
1.03899e-05
1.07986e-05
1.12188e-05
1.16507e-05
1.20944e-05
1.25501e-05
1.30181e-05
1.34986e-05
1.39917e-05
1.44976e-05
1.50165e-05
1.55486e-05
1.60942e-05
1.66533e-05
1.72262e-05
1.78131e-05
1.84141e-05
1.90295e-05
1.96594e-05
2.0304e-05
2.09635e-05
2.1638e-05
2.23278e-05
2.30331e-05
2.37538e-05
2.44904e-05
2.52429e-05
2.60114e-05
2.67963e-05
2.75975e-05
2.84152e-05
2.92497e-05
3.0101e-05
3.09693e-05
3.18547e-05
3.27574e-05
3.36775e-05
3.4615e-05
3.55702e-05
3.65431e-05
3.75339e-05
3.85425e-05
3.95692e-05
4.0614e-05
4.1677e-05
4.27583e-05
4.38579e-05
4.49758e-05
4.61122e-05
4.72671e-05
4.84404e-05
4.96323e-05
5.08428e-05
5.20718e-05
5.33193e-05
5.45854e-05
5.587e-05
5.71732e-05
5.84947e-05
5.98347e-05
6.1193e-05
6.25696e-05
6.39643e-05
6.53772e-05
6.68081e-05
6.82568e-05
6.97233e-05
7.12074e-05
7.2709e-05
7.42279e-05
7.57639e-05
7.73168e-05
7.88865e-05
8.04727e-05
8.20752e-05
8.36938e-05
8.53282e-05
8.69782e-05
8.86435e-05
9.03237e-05
9.20186e-05
9.3728e-05
9.54513e-05
9.71884e-05
9.89388e-05
0.000100702
0.000102478
0.000104266
0.000106066
0.000107878
0.0001097
0.000111533
0.000113376
0.000115228
0.00011709
0.00011896
0.000120838
0.000122724
0.000124617
0.000126516
0.000128421
0.000130331
0.000132247
0.000134166
0.000136089
0.000138015
0.000139943
0.000141873
0.000143804
0.000145735
0.000147667
0.000149597
0.000151525
0.000153452
0.000155375
0.000157295
0.00015921
0.00016112
0.000163025
0.000164922
0.000166813
0.000168696
0.000170569
0.000172434
0.000174288
0.000176131
0.000177963
0.000179782
0.000181587
0.000183379
0.000185156
0.000186918
0.000188664
0.000190392
0.000192103
0.000193795
0.000195469
0.000197122
0.000198755
0.000200366
0.000201955
0.000203522
0.000205065
0.000206584
0.000208078
0.000209546
0.000210989
0.000212404
0.000213792
0.000215152
0.000216483
0.000217784
0.000219055
0.000220296
0.000221506
0.000222684
0.000223829
0.000224942
0.000226021
0.000227067
0.000228078
0.000229054
0.000229995
0.0002309
0.000231769
0.000232602
0.000233397
0.000234155
0.000234876
0.000235558
0.000236202
0.000236808
0.000237374
0.000237902
0.00023839
0.000238838
0.000239247
0.000239615
0.000239944
0.000240232
0.00024048
0.000240687
0.000240854
0.000240981
0.000241066
0.000241112
0.000241116
0.000241081
0.000241005
0.000240888
0.000240731
0.000240534
0.000240296
0.000240019
0.000239702
0.000239346
0.00023895
0.000238515
0.000238041
0.000237529
0.000236979
0.000236391
0.000235765
0.000235103
0.000234403
0.000233667
0.000232895
0.000232087
0.000231244
0.000230367
0.000229455
0.00022851
0.000227531
0.00022652
0.000225476
0.000224401
0.000223294
0.000222157
0.00022099
0.000219794
0.000218569
0.000217316
0.000216035
0.000214727
0.000213393
0.000212033
0.000210648
0.000209239
0.000207807
0.000206351
0.000204873
0.000203373
0.000201852
0.000200311
0.000198751
0.000197171
0.000195574
0.000193959
0.000192327
0.000190679
0.000189016
0.000187338
0.000185646
0.000183941
0.000182223
0.000180494
0.000178753
0.000177002
0.000175241
0.000173471
0.000171693
0.000169907
0.000168114
0.000166314
0.000164509
0.000162699
0.000160885
0.000159067
0.000157245
0.000155422
0.000153596
0.000151769
0.000149942
0.000148114
0.000146288
0.000144462
0.000142638
0.000140817
0.000138998
0.000137183
0.000135371
0.000133565
0.000131763
0.000129966
0.000128176
0.000126392
0.000124616
0.000122846
0.000121085
0.000119332
0.000117588
0.000115853
0.000114128
0.000112413
0.000110708
0.000109015
0.000107333
0.000105662
0.000104004
0.000102358
0.000100725
9.91058e-05
9.75e-05
9.59082e-05
9.4331e-05
9.27686e-05
9.12216e-05
8.96902e-05
8.8175e-05
8.66765e-05
8.5195e-05
8.37311e-05
8.22854e-05
8.08583e-05
7.94505e-05
7.80627e-05
7.66956e-05
7.53498e-05
7.40264e-05
7.27262e-05
7.14503e-05
7.01998e-05
6.8976e-05
6.77803e-05
6.66142e-05
6.54796e-05
6.43784e-05
6.33127e-05
6.22851e-05
6.12982e-05
6.03552e-05
5.94595e-05
5.86149e-05
5.78257e-05
5.70967e-05
5.64334e-05
5.58415e-05
5.53277e-05
5.48991e-05
5.45639e-05
5.43308e-05
5.42091e-05
7.10113e-09
2.27694e-08
3.99957e-08
5.88784e-08
7.95052e-08
1.0195e-07
1.26286e-07
1.52588e-07
1.80937e-07
2.11422e-07
2.44137e-07
2.79182e-07
3.16662e-07
3.56684e-07
3.99359e-07
4.44801e-07
4.93125e-07
5.44449e-07
5.98894e-07
6.56579e-07
7.17629e-07
7.82168e-07
8.50324e-07
9.22225e-07
9.98003e-07
1.07779e-06
1.16172e-06
1.24992e-06
1.34255e-06
1.43973e-06
1.54161e-06
1.64834e-06
1.76005e-06
1.8769e-06
1.99903e-06
2.1266e-06
2.25976e-06
2.39866e-06
2.54346e-06
2.69433e-06
2.85141e-06
3.01487e-06
3.18487e-06
3.36159e-06
3.54518e-06
3.73581e-06
3.93366e-06
4.13889e-06
4.35168e-06
4.5722e-06
4.80064e-06
5.03716e-06
5.28194e-06
5.53517e-06
5.79703e-06
6.0677e-06
6.34736e-06
6.63621e-06
6.93442e-06
7.24219e-06
7.55971e-06
7.88715e-06
8.22473e-06
8.57262e-06
8.93102e-06
9.30013e-06
9.68014e-06
1.00712e-05
1.04736e-05
1.08875e-05
1.13131e-05
1.17505e-05
1.22e-05
1.26618e-05
1.31361e-05
1.3623e-05
1.41228e-05
1.46357e-05
1.51618e-05
1.57014e-05
1.62546e-05
1.68217e-05
1.74028e-05
1.79981e-05
1.86079e-05
1.92323e-05
1.98714e-05
2.05256e-05
2.11949e-05
2.18796e-05
2.25798e-05
2.32958e-05
2.40276e-05
2.47755e-05
2.55396e-05
2.63201e-05
2.71172e-05
2.7931e-05
2.87617e-05
2.96094e-05
3.04743e-05
3.13565e-05
3.22562e-05
3.31735e-05
3.41086e-05
3.50614e-05
3.60323e-05
3.70212e-05
3.80284e-05
3.90538e-05
4.00976e-05
4.11599e-05
4.22408e-05
4.33403e-05
4.44585e-05
4.55954e-05
4.67512e-05
4.79258e-05
4.91194e-05
5.03318e-05
5.15632e-05
5.28136e-05
5.40829e-05
5.53711e-05
5.66783e-05
5.80043e-05
5.93492e-05
6.07129e-05
6.20953e-05
6.34965e-05
6.49162e-05
6.63544e-05
6.7811e-05
6.92859e-05
7.07789e-05
7.229e-05
7.38189e-05
7.53655e-05
7.69297e-05
7.85111e-05
8.01097e-05
8.17253e-05
8.33575e-05
8.50062e-05
8.66711e-05
8.83519e-05
9.00484e-05
9.17602e-05
9.34871e-05
9.52287e-05
9.69848e-05
9.87549e-05
0.000100539
0.000102336
0.000104146
0.000105969
0.000107803
0.00010965
0.000111507
0.000113376
0.000115255
0.000117143
0.000119042
0.000120948
0.000122864
0.000124787
0.000126717
0.000128654
0.000130597
0.000132546
0.0001345
0.000136458
0.00013842
0.000140385
0.000142352
0.000144322
0.000146292
0.000148263
0.000150234
0.000152204
0.000154173
0.000156139
0.000158103
0.000160063
0.000162018
0.000163969
0.000165914
0.000167852
0.000169783
0.000171706
0.00017362
0.000175524
0.000177419
0.000179302
0.000181173
0.000183032
0.000184878
0.000186709
0.000188526
0.000190326
0.000192111
0.000193878
0.000195628
0.000197359
0.00019907
0.000200761
0.000202432
0.00020408
0.000205706
0.00020731
0.000208889
0.000210444
0.000211973
0.000213477
0.000214954
0.000216404
0.000217825
0.000219218
0.000220582
0.000221916
0.00022322
0.000224492
0.000225732
0.000226941
0.000228116
0.000229258
0.000230366
0.000231439
0.000232478
0.000233481
0.000234448
0.000235379
0.000236273
0.000237129
0.000237948
0.000238729
0.000239472
0.000240176
0.00024084
0.000241466
0.000242051
0.000242597
0.000243103
0.000243568
0.000243993
0.000244377
0.00024472
0.000245022
0.000245283
0.000245502
0.000245681
0.000245817
0.000245913
0.000245967
0.000245979
0.000245952
0.000245882
0.000245771
0.000245618
0.000245425
0.00024519
0.000244915
0.000244599
0.000244243
0.000243847
0.000243411
0.000242935
0.000242421
0.000241867
0.000241274
0.000240643
0.000239974
0.000239267
0.000238523
0.000237742
0.000236925
0.000236072
0.000235184
0.00023426
0.000233302
0.00023231
0.000231284
0.000230226
0.000229135
0.000228012
0.000226858
0.000225673
0.000224458
0.000223214
0.00022194
0.000220639
0.00021931
0.000217954
0.000216571
0.000215163
0.00021373
0.000212273
0.000210792
0.000209288
0.000207762
0.000206215
0.000204647
0.000203058
0.000201451
0.000199824
0.00019818
0.000196518
0.00019484
0.000193146
0.000191437
0.000189713
0.000187976
0.000186226
0.000184464
0.00018269
0.000180906
0.000179111
0.000177307
0.000175494
0.000173674
0.000171846
0.000170011
0.000168171
0.000166325
0.000164475
0.00016262
0.000160763
0.000158903
0.000157041
0.000155177
0.000153313
0.000151449
0.000149585
0.000147722
0.000145861
0.000144002
0.000142146
0.000140293
0.000138445
0.000136601
0.000134761
0.000132928
0.0001311
0.000129279
0.000127465
0.000125659
0.00012386
0.00012207
0.000120289
0.000118518
0.000116756
0.000115004
0.000113263
0.000111533
0.000109815
0.000108109
0.000106414
0.000104733
0.000103065
0.00010141
9.97692e-05
9.81426e-05
9.65307e-05
9.4934e-05
9.33528e-05
9.17875e-05
9.02386e-05
8.87066e-05
8.7192e-05
8.56952e-05
8.42168e-05
8.27574e-05
8.13175e-05
7.98979e-05
7.84991e-05
7.71222e-05
7.57678e-05
7.44369e-05
7.31306e-05
7.18499e-05
7.05963e-05
6.93711e-05
6.81758e-05
6.70123e-05
6.58824e-05
6.47885e-05
6.37329e-05
6.27184e-05
6.17481e-05
6.08256e-05
5.99546e-05
5.91396e-05
5.83854e-05
5.76977e-05
5.70825e-05
5.65468e-05
5.60983e-05
5.5746e-05
5.54995e-05
5.537e-05
6.98442e-09
2.23877e-08
3.93012e-08
5.78218e-08
7.80493e-08
1.00076e-07
1.23989e-07
1.49877e-07
1.77831e-07
2.07942e-07
2.4031e-07
2.75034e-07
3.1222e-07
3.51975e-07
3.94408e-07
4.39633e-07
4.87764e-07
5.38918e-07
5.93215e-07
6.50775e-07
7.11724e-07
7.76186e-07
8.44289e-07
9.16163e-07
9.9194e-07
1.07175e-06
1.15574e-06
1.24404e-06
1.33679e-06
1.43413e-06
1.53621e-06
1.64317e-06
1.75517e-06
1.87234e-06
1.99485e-06
2.12285e-06
2.25648e-06
2.39592e-06
2.54132e-06
2.69284e-06
2.85064e-06
3.01488e-06
3.18575e-06
3.36339e-06
3.54799e-06
3.73971e-06
3.93872e-06
4.14521e-06
4.35934e-06
4.5813e-06
4.81127e-06
5.04942e-06
5.29594e-06
5.55101e-06
5.81481e-06
6.08754e-06
6.36938e-06
6.66052e-06
6.96115e-06
7.27147e-06
7.59165e-06
7.92191e-06
8.26243e-06
8.61341e-06
8.97504e-06
9.34752e-06
9.73106e-06
1.01258e-05
1.05321e-05
1.095e-05
1.13797e-05
1.18215e-05
1.22755e-05
1.2742e-05
1.32211e-05
1.37131e-05
1.42182e-05
1.47365e-05
1.52683e-05
1.58137e-05
1.63729e-05
1.69463e-05
1.75338e-05
1.81358e-05
1.87525e-05
1.9384e-05
2.00305e-05
2.06922e-05
2.13694e-05
2.20621e-05
2.27706e-05
2.34951e-05
2.42357e-05
2.49926e-05
2.5766e-05
2.65561e-05
2.7363e-05
2.81868e-05
2.90279e-05
2.98862e-05
3.0762e-05
3.16554e-05
3.25665e-05
3.34956e-05
3.44426e-05
3.54078e-05
3.63913e-05
3.73931e-05
3.84135e-05
3.94524e-05
4.051e-05
4.15865e-05
4.26818e-05
4.3796e-05
4.49293e-05
4.60817e-05
4.72531e-05
4.84438e-05
4.96537e-05
5.08828e-05
5.21313e-05
5.33989e-05
5.46859e-05
5.59922e-05
5.73176e-05
5.86624e-05
6.00263e-05
6.14093e-05
6.28115e-05
6.42326e-05
6.56727e-05
6.71316e-05
6.86093e-05
7.01056e-05
7.16203e-05
7.31535e-05
7.47048e-05
7.62742e-05
7.78614e-05
7.94663e-05
8.10886e-05
8.27282e-05
8.43849e-05
8.60583e-05
8.77483e-05
8.94545e-05
9.11767e-05
9.29146e-05
9.46679e-05
9.64362e-05
9.82193e-05
0.000100017
0.000101828
0.000103653
0.000105491
0.000107342
0.000109206
0.000111081
0.000112968
0.000114867
0.000116775
0.000118694
0.000120623
0.00012256
0.000124506
0.00012646
0.000128422
0.000130391
0.000132366
0.000134346
0.000136332
0.000138323
0.000140317
0.000142315
0.000144315
0.000146317
0.000148321
0.000150325
0.00015233
0.000154333
0.000156335
0.000158336
0.000160333
0.000162327
0.000164316
0.000166301
0.000168279
0.000170251
0.000172216
0.000174173
0.000176121
0.00017806
0.000179988
0.000181905
0.00018381
0.000185703
0.000187582
0.000189447
0.000191297
0.000193132
0.000194949
0.00019675
0.000198532
0.000200296
0.00020204
0.000203763
0.000205465
0.000207146
0.000208804
0.000210438
0.000212049
0.000213634
0.000215195
0.000216728
0.000218235
0.000219714
0.000221165
0.000222587
0.00022398
0.000225341
0.000226673
0.000227972
0.000229239
0.000230474
0.000231675
0.000232843
0.000233976
0.000235074
0.000236136
0.000237163
0.000238153
0.000239106
0.000240022
0.0002409
0.00024174
0.000242541
0.000243303
0.000244026
0.000244709
0.000245352
0.000245955
0.000246518
0.000247039
0.00024752
0.000247959
0.000248357
0.000248714
0.000249028
0.000249301
0.000249532
0.000249721
0.000249868
0.000249973
0.000250035
0.000250056
0.000250035
0.000249973
0.000249867
0.00024972
0.00024953
0.0002493
0.000249027
0.000248714
0.000248359
0.000247964
0.000247528
0.000247052
0.000246535
0.000245979
0.000245384
0.000244749
0.000244076
0.000243365
0.000242615
0.000241828
0.000241004
0.000240144
0.000239247
0.000238314
0.000237347
0.000236344
0.000235308
0.000234238
0.000233134
0.000231999
0.000230831
0.000229632
0.000228402
0.000227143
0.000225854
0.000224536
0.000223189
0.000221816
0.000220415
0.000218988
0.000217536
0.000216059
0.000214558
0.000213033
0.000211486
0.000209917
0.000208326
0.000206715
0.000205084
0.000203434
0.000201765
0.000200079
0.000198376
0.000196657
0.000194922
0.000193172
0.000191409
0.000189632
0.000187843
0.000186042
0.000184229
0.000182407
0.000180575
0.000178733
0.000176884
0.000175027
0.000173163
0.000171293
0.000169418
0.000167537
0.000165653
0.000163765
0.000161874
0.000159982
0.000158087
0.000156192
0.000154297
0.000152402
0.000150508
0.000148616
0.000146726
0.000144838
0.000142954
0.000141074
0.000139199
0.000137328
0.000135463
0.000133604
0.000131751
0.000129906
0.000128068
0.000126238
0.000124417
0.000122605
0.000120802
0.000119009
0.000117226
0.000115455
0.000113694
0.000111945
0.000110208
0.000108484
0.000106772
0.000105074
0.000103389
0.000101718
0.000100062
9.8421e-05
9.67949e-05
9.51846e-05
9.35905e-05
9.20129e-05
9.04524e-05
8.89095e-05
8.73846e-05
8.58783e-05
8.43912e-05
8.29238e-05
8.14769e-05
8.00512e-05
7.86474e-05
7.72663e-05
7.5909e-05
7.45765e-05
7.327e-05
7.19906e-05
7.07398e-05
6.95192e-05
6.83305e-05
6.71757e-05
6.6057e-05
6.49769e-05
6.39381e-05
6.29438e-05
6.19974e-05
6.1103e-05
6.02648e-05
5.9488e-05
5.87782e-05
5.81419e-05
5.75862e-05
5.71195e-05
5.67513e-05
5.64926e-05
5.63559e-05
6.88665e-09
2.20678e-08
3.87199e-08
5.69343e-08
7.68158e-08
9.84678e-08
1.21992e-07
1.47489e-07
1.75059e-07
2.04802e-07
2.36821e-07
2.71217e-07
3.08098e-07
3.47569e-07
3.89741e-07
4.34724e-07
4.82634e-07
5.33585e-07
5.87698e-07
6.45092e-07
7.05892e-07
7.70222e-07
8.38212e-07
9.09992e-07
9.85694e-07
1.06545e-06
1.14941e-06
1.2377e-06
1.33046e-06
1.42785e-06
1.52999e-06
1.63706e-06
1.74918e-06
1.86652e-06
1.98923e-06
2.11747e-06
2.25138e-06
2.39114e-06
2.5369e-06
2.68883e-06
2.84709e-06
3.01184e-06
3.18327e-06
3.36153e-06
3.5468e-06
3.73926e-06
3.93908e-06
4.14643e-06
4.3615e-06
4.58446e-06
4.8155e-06
5.05481e-06
5.30255e-06
5.55894e-06
5.82414e-06
6.09835e-06
6.38177e-06
6.67457e-06
6.97696e-06
7.28914e-06
7.61128e-06
7.9436e-06
8.28629e-06