/*--------------------------------*- C++ -*----------------------------------*\
  =========                 |
  \\      /  F ield         | OpenFOAM: The Open Source CFD Toolbox
   \\    /   O peration     | Website:  https://openfoam.org
    \\  /    A nd           | Version:  dev
     \\/     M anipulation  |
\*---------------------------------------------------------------------------*/
FoamFile
{
    format      ascii;
    class       volScalarField;
    location    "0.92";
    object      Exp1;
}
// * * * * * * * * * * * * * * * * * * * * * * * * * * * * * * * * * * * * * //

dimensions      [0 0 0 0 0 0 0];

internalField   uniform 0;

boundaryField
{
    frontAndBack
    {
        type            empty;
    }
    inlet
    {
        type            calculated;
        value           uniform 0;
    }
    outlet
    {
        type            calculated;
        value           uniform 0;
    }
    substrate
    {
        type            calculated;
        value           nonuniform List<scalar> 
400
(
7.9461e-23
2.53087e-22
4.44106e-22
6.51718e-22
8.76062e-22
1.11792e-21
1.37805e-21
1.65726e-21
1.95644e-21
2.27657e-21
2.61868e-21
2.98386e-21
3.37323e-21
3.78797e-21
4.22926e-21
4.69832e-21
5.1964e-21
5.72475e-21
6.28467e-21
6.87745e-21
7.50443e-21
8.16696e-21
8.86641e-21
9.60419e-21
1.03817e-20
1.12005e-20
1.20619e-20
1.29676e-20
1.39191e-20
1.49179e-20
1.59658e-20
1.70642e-20
1.82151e-20
1.94201e-20
2.06809e-20
2.19995e-20
2.33777e-20
2.48174e-20
2.63205e-20
2.78891e-20
2.95253e-20
3.12312e-20
3.30088e-20
3.48606e-20
3.67886e-20
3.87954e-20
4.08832e-20
4.30545e-20
4.53119e-20
4.7658e-20
5.00953e-20
5.26268e-20
5.5255e-20
5.79831e-20
6.08138e-20
6.37502e-20
6.67955e-20
6.99529e-20
7.32257e-20
7.66172e-20
8.01309e-20
8.37705e-20
8.75396e-20
9.14419e-20
9.54814e-20
9.96621e-20
1.03988e-19
1.08464e-19
1.13093e-19
1.17881e-19
1.22831e-19
1.2795e-19
1.3324e-19
1.38709e-19
1.4436e-19
1.50199e-19
1.56231e-19
1.62463e-19
1.68899e-19
1.75547e-19
1.82411e-19
1.89498e-19
1.96815e-19
2.04368e-19
2.12164e-19
2.20211e-19
2.28515e-19
2.37084e-19
2.45925e-19
2.55047e-19
2.64458e-19
2.74165e-19
2.84179e-19
2.94506e-19
3.05158e-19
3.16142e-19
3.27469e-19
3.39149e-19
3.51191e-19
3.63607e-19
3.76407e-19
3.89602e-19
4.03204e-19
4.17225e-19
4.31676e-19
4.46571e-19
4.61922e-19
4.77742e-19
4.94045e-19
5.10845e-19
5.28157e-19
5.45995e-19
5.64374e-19
5.8331e-19
6.0282e-19
6.2292e-19
6.43627e-19
6.64958e-19
6.86932e-19
7.09568e-19
7.32884e-19
7.569e-19
7.81637e-19
8.07115e-19
8.33356e-19
8.60382e-19
8.88216e-19
9.1688e-19
9.464e-19
9.76799e-19
1.0081e-18
1.04034e-18
1.07353e-18
1.10771e-18
1.14291e-18
1.17914e-18
1.21646e-18
1.25487e-18
1.29442e-18
1.33515e-18
1.37707e-18
1.42023e-18
1.46467e-18
1.51041e-18
1.5575e-18
1.60598e-18
1.65589e-18
1.70726e-18
1.76014e-18
1.81457e-18
1.8706e-18
1.92827e-18
1.98764e-18
2.04874e-18
2.11162e-18
2.17635e-18
2.24297e-18
2.31153e-18
2.3821e-18
2.45472e-18
2.52946e-18
2.60638e-18
2.68554e-18
2.767e-18
2.85083e-18
2.93709e-18
3.02586e-18
3.11721e-18
3.21121e-18
3.30793e-18
3.40746e-18
3.50987e-18
3.61524e-18
3.72366e-18
3.83521e-18
3.94999e-18
4.06807e-18
4.18957e-18
4.31457e-18
4.44317e-18
4.57547e-18
4.71158e-18
4.85161e-18
4.99566e-18
5.14385e-18
5.29629e-18
5.45311e-18
5.61442e-18
5.78035e-18
5.95104e-18
6.12661e-18
6.3072e-18
6.49295e-18
6.68401e-18
6.88052e-18
7.08264e-18
7.29051e-18
7.50431e-18
7.7242e-18
7.95033e-18
8.1829e-18
8.42207e-18
8.66804e-18
8.92098e-18
9.18109e-18
9.44856e-18
9.72361e-18
1.00064e-17
1.02973e-17
1.05963e-17
1.09038e-17
1.12199e-17
1.1545e-17
1.18792e-17
1.22228e-17
1.25761e-17
1.29393e-17
1.33127e-17
1.36966e-17
1.40913e-17
1.4497e-17
1.4914e-17
1.53428e-17
1.57835e-17
1.62365e-17
1.67021e-17
1.71807e-17
1.76727e-17
1.81784e-17
1.86981e-17
1.92322e-17
1.97812e-17
2.03454e-17
2.09252e-17
2.15211e-17
2.21335e-17
2.27628e-17
2.34094e-17
2.40739e-17
2.47568e-17
2.54584e-17
2.61793e-17
2.69201e-17
2.76811e-17
2.84631e-17
2.92665e-17
3.00919e-17
3.09398e-17
3.1811e-17
3.27059e-17
3.36252e-17
3.45696e-17
3.55397e-17
3.65361e-17
3.75596e-17
3.86109e-17
3.96907e-17
4.07997e-17
4.19387e-17
4.31085e-17
4.43099e-17
4.55436e-17
4.68106e-17
4.81117e-17
4.94477e-17
5.08196e-17
5.22282e-17
5.36746e-17
5.51597e-17
5.66844e-17
5.82498e-17
5.9857e-17
6.15069e-17
6.32007e-17
6.49394e-17
6.67243e-17
6.85565e-17
7.04371e-17
7.23674e-17
7.43487e-17
7.63822e-17
7.84691e-17
8.0611e-17
8.2809e-17
8.50646e-17
8.73793e-17
8.97545e-17
9.21917e-17
9.46924e-17
9.72581e-17
9.98906e-17
1.02591e-16
1.05362e-16
1.08204e-16
1.1112e-16
1.14111e-16
1.17179e-16
1.20326e-16
1.23553e-16
1.26864e-16
1.30258e-16
1.3374e-16
1.3731e-16
1.40971e-16
1.44725e-16
1.48574e-16
1.52521e-16
1.56567e-16
1.60715e-16
1.64967e-16
1.69326e-16
1.73794e-16
1.78373e-16
1.83067e-16
1.87877e-16
1.92807e-16
1.97858e-16
2.03034e-16
2.08338e-16
2.13771e-16
2.19338e-16
2.2504e-16
2.30882e-16
2.36865e-16
2.42992e-16
2.49267e-16
2.55693e-16
2.62273e-16
2.69009e-16
2.75905e-16
2.82965e-16
2.90191e-16
2.97586e-16
3.05154e-16
3.12898e-16
3.2082e-16
3.28925e-16
3.37215e-16
3.45694e-16
3.54364e-16
3.63229e-16
3.72291e-16
3.81554e-16
3.91021e-16
4.00694e-16
4.10576e-16
4.20669e-16
4.30977e-16
4.41501e-16
4.52244e-16
4.63208e-16
4.74393e-16
4.85803e-16
4.97437e-16
5.09298e-16
5.21385e-16
5.33699e-16
5.46239e-16
5.59006e-16
5.71997e-16
5.85212e-16
5.98647e-16
6.123e-16
6.26168e-16
6.40245e-16
6.54527e-16
6.69007e-16
6.83677e-16
6.9853e-16
7.13554e-16
7.2874e-16
7.44073e-16
7.59541e-16
7.75126e-16
7.9081e-16
8.06574e-16
8.22394e-16
8.38245e-16
8.541e-16
8.69928e-16
8.85693e-16
9.0136e-16
9.16885e-16
9.32224e-16
9.47327e-16
9.62138e-16
9.76597e-16
9.90639e-16
1.00419e-15
1.01718e-15
1.02951e-15
1.04111e-15
1.05186e-15
1.06167e-15
1.07042e-15
1.078e-15
1.08429e-15
1.08916e-15
1.0925e-15
1.09421e-15
)
;
    }
    Wall
    {
        type            calculated;
        value           nonuniform List<scalar> 
400
(
7.94595e-23
2.53082e-22
4.44097e-22
6.51704e-22
8.76042e-22
1.11789e-21
1.37802e-21
1.65722e-21
1.95639e-21
2.2765e-21
2.61859e-21
2.98376e-21
3.37311e-21
3.78783e-21
4.2291e-21
4.69814e-21
5.19619e-21
5.72452e-21
6.28441e-21
6.87717e-21
7.50412e-21
8.16662e-21
8.86604e-21
9.60379e-21
1.03813e-20
1.12e-20
1.20614e-20
1.29671e-20
1.39185e-20
1.49173e-20
1.59651e-20
1.70636e-20
1.82144e-20
1.94193e-20
2.06802e-20
2.19987e-20
2.33768e-20
2.48165e-20
2.63196e-20
2.78881e-20
2.95243e-20
3.12301e-20
3.30077e-20
3.48593e-20
3.67873e-20
3.8794e-20
4.08818e-20
4.3053e-20
4.53104e-20
4.76564e-20
5.00937e-20
5.2625e-20
5.52532e-20
5.79812e-20
6.08118e-20
6.37482e-20
6.67934e-20
6.99507e-20
7.32233e-20
7.66147e-20
8.01284e-20
8.37679e-20
8.75368e-20
9.14391e-20
9.54785e-20
9.96591e-20
1.03985e-19
1.0846e-19
1.1309e-19
1.17877e-19
1.22828e-19
1.27946e-19
1.33236e-19
1.38705e-19
1.44356e-19
1.50195e-19
1.56227e-19
1.62458e-19
1.68895e-19
1.75542e-19
1.82405e-19
1.89492e-19
1.96809e-19
2.04362e-19
2.12158e-19
2.20204e-19
2.28508e-19
2.37077e-19
2.45918e-19
2.5504e-19
2.6445e-19
2.74157e-19
2.8417e-19
2.94498e-19
3.05149e-19
3.16133e-19
3.2746e-19
3.39139e-19
3.51181e-19
3.63596e-19
3.76396e-19
3.89591e-19
4.03193e-19
4.17213e-19
4.31664e-19
4.46558e-19
4.61909e-19
4.77729e-19
4.94031e-19
5.10831e-19
5.28142e-19
5.4598e-19
5.64358e-19
5.83294e-19
6.02803e-19
6.22903e-19
6.43609e-19
6.6494e-19
6.86913e-19
7.09548e-19
7.32864e-19
7.5688e-19
7.81616e-19
8.07093e-19
8.33334e-19
8.60359e-19
8.88192e-19
9.16856e-19
9.46374e-19
9.76773e-19
1.00808e-18
1.04031e-18
1.0735e-18
1.10768e-18
1.14288e-18
1.17911e-18
1.21642e-18
1.25484e-18
1.29439e-18
1.33511e-18
1.37703e-18
1.42019e-18
1.46463e-18
1.51037e-18
1.55746e-18
1.60594e-18
1.65584e-18
1.70721e-18
1.76009e-18
1.81452e-18
1.87055e-18
1.92822e-18
1.98758e-18
2.04868e-18
2.11157e-18
2.17629e-18
2.24291e-18
2.31147e-18
2.38203e-18
2.45466e-18
2.5294e-18
2.60631e-18
2.68547e-18
2.76693e-18
2.85075e-18
2.93702e-18
3.02579e-18
3.11713e-18
3.21113e-18
3.30785e-18
3.40737e-18
3.50978e-18
3.61514e-18
3.72356e-18
3.83511e-18
3.94988e-18
4.06797e-18
4.18946e-18
4.31445e-18
4.44305e-18
4.57535e-18
4.71146e-18
4.85148e-18
4.99553e-18
5.14371e-18
5.29615e-18
5.45296e-18
5.61427e-18
5.7802e-18
5.95088e-18
6.12645e-18
6.30704e-18
6.49278e-18
6.68384e-18
6.88034e-18
7.08245e-18
7.29032e-18
7.50412e-18
7.72399e-18
7.95013e-18
8.18269e-18
8.42185e-18
8.66781e-18
8.92074e-18
9.18085e-18
9.44832e-18
9.72336e-18
1.00062e-17
1.0297e-17
1.0596e-17
1.09035e-17
1.12196e-17
1.15447e-17
1.18789e-17
1.22225e-17
1.25758e-17
1.2939e-17
1.33124e-17
1.36963e-17
1.40909e-17
1.44966e-17
1.49137e-17
1.53424e-17
1.57831e-17
1.62361e-17
1.67017e-17
1.71803e-17
1.76722e-17
1.81779e-17
1.86976e-17
1.92317e-17
1.97807e-17
2.03449e-17
2.09247e-17
2.15205e-17
2.21329e-17
2.27622e-17
2.34088e-17
2.40733e-17
2.47561e-17
2.54577e-17
2.61786e-17
2.69194e-17
2.76804e-17
2.84624e-17
2.92657e-17
3.00911e-17
3.0939e-17
3.18101e-17
3.2705e-17
3.36243e-17
3.45687e-17
3.55387e-17
3.65352e-17
3.75587e-17
3.86099e-17
3.96897e-17
4.07987e-17
4.19377e-17
4.31074e-17
4.43088e-17
4.55425e-17
4.68094e-17
4.81104e-17
4.94464e-17
5.08183e-17
5.22269e-17
5.36732e-17
5.51582e-17
5.66829e-17
5.82483e-17
5.98554e-17
6.15053e-17
6.31991e-17
6.49378e-17
6.67226e-17
6.85547e-17
7.04353e-17
7.23656e-17
7.43468e-17
7.63802e-17
7.84671e-17
8.06089e-17
8.28068e-17
8.50624e-17
8.7377e-17
8.97522e-17
9.21893e-17
9.46899e-17
9.72556e-17
9.98879e-17
1.02589e-16
1.05359e-16
1.08202e-16
1.11117e-16
1.14108e-16
1.17176e-16
1.20323e-16
1.2355e-16
1.2686e-16
1.30255e-16
1.33737e-16
1.37307e-16
1.40968e-16
1.44721e-16
1.4857e-16
1.52517e-16
1.56563e-16
1.60711e-16
1.64963e-16
1.69321e-16
1.73789e-16
1.78369e-16
1.83062e-16
1.87872e-16
1.92802e-16
1.97853e-16
2.03029e-16
2.08332e-16
2.13766e-16
2.19332e-16
2.25035e-16
2.30876e-16
2.36859e-16
2.42986e-16
2.49261e-16
2.55687e-16
2.62266e-16
2.69002e-16
2.75899e-16
2.82958e-16
2.90184e-16
2.97579e-16
3.05146e-16
3.1289e-16
3.20812e-16
3.28917e-16
3.37207e-16
3.45685e-16
3.54355e-16
3.6322e-16
3.72282e-16
3.81545e-16
3.91011e-16
4.00684e-16
4.10566e-16
4.20659e-16
4.30967e-16
4.41491e-16
4.52233e-16
4.63196e-16
4.74382e-16
4.85791e-16
4.97425e-16
5.09285e-16
5.21372e-16
5.33686e-16
5.46226e-16
5.58992e-16
5.71983e-16
5.85197e-16
5.98633e-16
6.12286e-16
6.26153e-16
6.4023e-16
6.54512e-16
6.68991e-16
6.83661e-16
6.98514e-16
7.13538e-16
7.28723e-16
7.44056e-16
7.59524e-16
7.75108e-16
7.90792e-16
8.06556e-16
8.22376e-16
8.38227e-16
8.54081e-16
8.69908e-16
8.85674e-16
9.0134e-16
9.16865e-16
9.32204e-16
9.47307e-16
9.62118e-16
9.76577e-16
9.90619e-16
1.00417e-15
1.01716e-15
1.02949e-15
1.04109e-15
1.05184e-15
1.06165e-15
1.0704e-15
1.07798e-15
1.08427e-15
1.08914e-15
1.09249e-15
1.0942e-15
)
;
    }
}


// ************************************************************************* //
