/*--------------------------------*- C++ -*----------------------------------*\
  =========                 |
  \\      /  F ield         | OpenFOAM: The Open Source CFD Toolbox
   \\    /   O peration     | Website:  https://openfoam.org
    \\  /    A nd           | Version:  dev
     \\/     M anipulation  |
\*---------------------------------------------------------------------------*/
FoamFile
{
    format      ascii;
    class       volScalarField;
    location    "0.92";
    object      N1;
}
// * * * * * * * * * * * * * * * * * * * * * * * * * * * * * * * * * * * * * //

dimensions      [0 0 0 0 0 0 0];

internalField   nonuniform List<scalar> 
8000
(
6.03306e-22
1.92204e-21
3.37333e-21
4.95113e-21
6.65654e-21
8.49552e-21
1.04739e-20
1.25978e-20
1.48741e-20
1.73103e-20
1.99142e-20
2.26943e-20
2.56591e-20
2.88177e-20
3.2179e-20
3.57526e-20
3.9548e-20
4.35747e-20
4.78428e-20
5.23622e-20
5.71432e-20
6.21961e-20
6.75316e-20
7.31604e-20
7.90935e-20
8.53422e-20
9.19179e-20
9.88324e-20
1.06098e-19
1.13726e-19
1.21729e-19
1.30121e-19
1.38915e-19
1.48123e-19
1.57759e-19
1.67839e-19
1.78375e-19
1.89384e-19
2.00879e-19
2.12877e-19
2.25393e-19
2.38444e-19
2.52047e-19
2.66218e-19
2.80975e-19
2.96336e-19
3.1232e-19
3.28945e-19
3.46231e-19
3.64199e-19
3.82868e-19
4.0226e-19
4.22395e-19
4.43298e-19
4.64989e-19
4.87493e-19
5.10834e-19
5.35036e-19
5.60125e-19
5.86127e-19
6.13069e-19
6.40978e-19
6.69882e-19
6.99811e-19
7.30795e-19
7.62865e-19
7.96051e-19
8.30387e-19
8.65907e-19
9.02644e-19
9.40634e-19
9.79913e-19
1.02052e-18
1.06249e-18
1.10587e-18
1.15069e-18
1.197e-18
1.24484e-18
1.29426e-18
1.3453e-18
1.398e-18
1.45243e-18
1.50861e-18
1.56662e-18
1.6265e-18
1.6883e-18
1.75208e-18
1.8179e-18
1.88581e-18
1.95588e-18
2.02818e-18
2.10275e-18
2.17968e-18
2.25903e-18
2.34087e-18
2.42526e-18
2.5123e-18
2.60204e-18
2.69458e-18
2.78999e-18
2.88835e-18
2.98975e-18
3.09429e-18
3.20204e-18
3.3131e-18
3.42758e-18
3.54556e-18
3.66716e-18
3.79246e-18
3.92159e-18
4.05466e-18
4.19177e-18
4.33305e-18
4.47861e-18
4.62858e-18
4.78309e-18
4.94227e-18
5.10625e-18
5.27517e-18
5.44919e-18
5.62844e-18
5.81307e-18
6.00324e-18
6.19912e-18
6.40086e-18
6.60865e-18
6.82264e-18
7.04302e-18
7.26998e-18
7.50371e-18
7.7444e-18
7.99225e-18
8.24747e-18
8.51027e-18
8.78087e-18
9.0595e-18
9.34639e-18
9.64177e-18
9.94589e-18
1.0259e-17
1.05814e-17
1.09133e-17
1.12549e-17
1.16067e-17
1.19688e-17
1.23416e-17
1.27253e-17
1.31203e-17
1.3527e-17
1.39455e-17
1.43764e-17
1.48199e-17
1.52764e-17
1.57462e-17
1.62298e-17
1.67275e-17
1.72398e-17
1.77671e-17
1.83097e-17
1.88682e-17
1.9443e-17
2.00345e-17
2.06432e-17
2.12696e-17
2.19143e-17
2.25777e-17
2.32604e-17
2.39628e-17
2.46857e-17
2.54295e-17
2.61949e-17
2.69824e-17
2.77928e-17
2.86266e-17
2.94844e-17
3.03671e-17
3.12752e-17
3.22096e-17
3.31708e-17
3.41598e-17
3.51773e-17
3.6224e-17
3.73009e-17
3.84087e-17
3.95484e-17
4.07207e-17
4.19267e-17
4.31673e-17
4.44434e-17
4.57561e-17
4.71063e-17
4.84951e-17
4.99237e-17
5.1393e-17
5.29043e-17
5.44587e-17
5.60574e-17
5.77016e-17
5.93926e-17
6.11318e-17
6.29203e-17
6.47597e-17
6.66513e-17
6.85966e-17
7.0597e-17
7.26541e-17
7.47694e-17
7.69445e-17
7.91812e-17
8.1481e-17
8.38457e-17
8.62771e-17
8.87771e-17
9.13474e-17
9.39901e-17
9.67072e-17
9.95005e-17
1.02372e-16
1.05325e-16
1.0836e-16
1.1148e-16
1.14687e-16
1.17985e-16
1.21374e-16
1.24858e-16
1.28439e-16
1.3212e-16
1.35904e-16
1.39792e-16
1.43789e-16
1.47897e-16
1.52119e-16
1.56458e-16
1.60918e-16
1.65501e-16
1.7021e-16
1.7505e-16
1.80023e-16
1.85134e-16
1.90385e-16
1.95781e-16
2.01326e-16
2.07023e-16
2.12876e-16
2.1889e-16
2.25069e-16
2.31417e-16
2.37938e-16
2.44638e-16
2.5152e-16
2.58591e-16
2.65854e-16
2.73314e-16
2.80978e-16
2.8885e-16
2.96935e-16
3.05239e-16
3.13768e-16
3.22528e-16
3.31525e-16
3.40764e-16
3.50253e-16
3.59997e-16
3.70003e-16
3.80278e-16
3.90829e-16
4.01663e-16
4.12787e-16
4.24208e-16
4.35935e-16
4.47974e-16
4.60334e-16
4.73023e-16
4.8605e-16
4.99423e-16
5.1315e-16
5.27241e-16
5.41704e-16
5.5655e-16
5.71788e-16
5.87427e-16
6.03477e-16
6.1995e-16
6.36854e-16
6.54202e-16
6.72004e-16
6.90271e-16
7.09015e-16
7.28247e-16
7.4798e-16
7.68226e-16
7.88997e-16
8.10306e-16
8.32166e-16
8.54591e-16
8.77594e-16
9.01189e-16
9.2539e-16
9.50213e-16
9.75671e-16
1.00178e-15
1.02856e-15
1.05601e-15
1.08417e-15
1.11304e-15
1.14264e-15
1.173e-15
1.20411e-15
1.23601e-15
1.26872e-15
1.30224e-15
1.3366e-15
1.37182e-15
1.40792e-15
1.44492e-15
1.48283e-15
1.52168e-15
1.56149e-15
1.60228e-15
1.64407e-15
1.68688e-15
1.73073e-15
1.77566e-15
1.82167e-15
1.8688e-15
1.91706e-15
1.96648e-15
2.01708e-15
2.06889e-15
2.12193e-15
2.17622e-15
2.2318e-15
2.28867e-15
2.34687e-15
2.40643e-15
2.46736e-15
2.52969e-15
2.59345e-15
2.65866e-15
2.72534e-15
2.79352e-15
2.86322e-15
2.93446e-15
3.00726e-15
3.08166e-15
3.15766e-15
3.23529e-15
3.31456e-15
3.3955e-15
3.47812e-15
3.56244e-15
3.64847e-15
3.73622e-15
3.8257e-15
3.91691e-15
4.00987e-15
4.10458e-15
4.20102e-15
4.29921e-15
4.39912e-15
4.50076e-15
4.60409e-15
4.70909e-15
4.81575e-15
4.92401e-15
5.03385e-15
5.14521e-15
5.25804e-15
5.37227e-15
5.48782e-15
5.60461e-15
5.72254e-15
5.8415e-15
5.96136e-15
6.08199e-15
6.20322e-15
6.32489e-15
6.4468e-15
6.56874e-15
6.69046e-15
6.81172e-15
6.9322e-15
7.05161e-15
7.16958e-15
7.28573e-15
7.39964e-15
7.51084e-15
7.61884e-15
7.72308e-15
7.82295e-15
7.91783e-15
8.00699e-15
8.08969e-15
8.16512e-15
8.23243e-15
8.29072e-15
8.33906e-15
8.37654e-15
8.40225e-15
8.4154e-15
5.91006e-22
1.89464e-21
3.33368e-21
4.9061e-21
6.61177e-21
8.45469e-21
1.044e-20
1.25735e-20
1.48621e-20
1.73132e-20
1.99348e-20
2.27354e-20
2.57239e-20
2.89093e-20
3.2301e-20
3.59087e-20
3.9742e-20
4.38109e-20
4.81256e-20
5.26963e-20
5.75336e-20
6.26481e-20
6.80508e-20
7.37527e-20
7.97652e-20
8.60999e-20
9.27685e-20
9.97833e-20
1.07156e-19
1.14901e-19
1.23029e-19
1.31554e-19
1.4049e-19
1.49851e-19
1.59651e-19
1.69904e-19
1.80625e-19
1.9183e-19
2.03534e-19
2.15753e-19
2.28504e-19
2.41803e-19
2.55668e-19
2.70117e-19
2.85167e-19
3.00837e-19
3.17147e-19
3.34115e-19
3.51763e-19
3.7011e-19
3.89178e-19
4.08989e-19
4.29565e-19
4.50928e-19
4.73103e-19
4.96114e-19
5.19985e-19
5.44742e-19
5.70411e-19
5.97019e-19
6.24593e-19
6.53163e-19
6.82758e-19
7.13407e-19
7.45141e-19
7.77992e-19
8.11993e-19
8.47177e-19
8.83579e-19
9.21235e-19
9.6018e-19
1.00045e-18
1.04209e-18
1.08514e-18
1.12963e-18
1.17561e-18
1.22312e-18
1.27221e-18
1.32292e-18
1.3753e-18
1.42939e-18
1.48526e-18
1.54294e-18
1.6025e-18
1.66398e-18
1.72744e-18
1.79294e-18
1.86054e-18
1.9303e-18
2.00228e-18
2.07655e-18
2.15317e-18
2.23221e-18
2.31374e-18
2.39784e-18
2.48457e-18
2.57402e-18
2.66626e-18
2.76137e-18
2.85945e-18
2.96056e-18
3.06481e-18
3.17227e-18
3.28306e-18
3.39725e-18
3.51496e-18
3.63628e-18
3.76132e-18
3.89018e-18
4.02298e-18
4.15983e-18
4.30085e-18
4.44615e-18
4.59587e-18
4.75013e-18
4.90907e-18
5.07281e-18
5.24149e-18
5.41527e-18
5.59429e-18
5.7787e-18
5.96865e-18
6.16431e-18
6.36584e-18
6.57341e-18
6.7872e-18
7.00739e-18
7.23415e-18
7.46769e-18
7.7082e-18
7.95587e-18
8.21092e-18
8.47356e-18
8.744e-18
9.02248e-18
9.30922e-18
9.60446e-18
9.90846e-18
1.02215e-17
1.05437e-17
1.08755e-17
1.12171e-17
1.15687e-17
1.19308e-17
1.23035e-17
1.26871e-17
1.30821e-17
1.34887e-17
1.39073e-17
1.43381e-17
1.47816e-17
1.52381e-17
1.57079e-17
1.61916e-17
1.66894e-17
1.72017e-17
1.77291e-17
1.82718e-17
1.88304e-17
1.94053e-17
1.99969e-17
2.06058e-17
2.12325e-17
2.18774e-17
2.2541e-17
2.32239e-17
2.39267e-17
2.46499e-17
2.5394e-17
2.61598e-17
2.69477e-17
2.77585e-17
2.85927e-17
2.94511e-17
3.03343e-17
3.1243e-17
3.21779e-17
3.31398e-17
3.41295e-17
3.51477e-17
3.61952e-17
3.72729e-17
3.83815e-17
3.95221e-17
4.06954e-17
4.19024e-17
4.3144e-17
4.44213e-17
4.57351e-17
4.70866e-17
4.84768e-17
4.99067e-17
5.13775e-17
5.28903e-17
5.44463e-17
5.60467e-17
5.76927e-17
5.93856e-17
6.11267e-17
6.29173e-17
6.47588e-17
6.66527e-17
6.86003e-17
7.06032e-17
7.26629e-17
7.47809e-17
7.69589e-17
7.91985e-17
8.15014e-17
8.38694e-17
8.63042e-17
8.88077e-17
9.13818e-17
9.40284e-17
9.67495e-17
9.95471e-17
1.02423e-16
1.0538e-16
1.0842e-16
1.11545e-16
1.14758e-16
1.18061e-16
1.21456e-16
1.24946e-16
1.28533e-16
1.32221e-16
1.36011e-16
1.39907e-16
1.43911e-16
1.48027e-16
1.52257e-16
1.56604e-16
1.61072e-16
1.65664e-16
1.70383e-16
1.75232e-16
1.80216e-16
1.85337e-16
1.906e-16
1.96007e-16
2.01564e-16
2.07273e-16
2.13139e-16
2.19167e-16
2.25359e-16
2.31722e-16
2.38259e-16
2.44974e-16
2.51873e-16
2.58961e-16
2.66241e-16
2.7372e-16
2.81403e-16
2.89295e-16
2.97401e-16
3.05727e-16
3.14278e-16
3.23061e-16
3.32082e-16
3.41347e-16
3.50861e-16
3.60633e-16
3.70667e-16
3.80971e-16
3.91552e-16
4.02418e-16
4.13574e-16
4.2503e-16
4.36791e-16
4.48867e-16
4.61266e-16
4.73994e-16
4.87062e-16
5.00477e-16
5.14249e-16
5.28385e-16
5.42896e-16
5.57792e-16
5.7308e-16
5.88772e-16
6.04878e-16
6.21408e-16
6.38372e-16
6.55781e-16
6.73647e-16
6.9198e-16
7.10793e-16
7.30097e-16
7.49904e-16
7.70226e-16
7.91076e-16
8.12468e-16
8.34414e-16
8.56927e-16
8.80022e-16
9.03713e-16
9.28013e-16
9.52939e-16
9.78503e-16
1.00472e-15
1.03161e-15
1.05919e-15
1.08747e-15
1.11647e-15
1.1462e-15
1.17669e-15
1.20795e-15
1.24e-15
1.27286e-15
1.30654e-15
1.34107e-15
1.37646e-15
1.41274e-15
1.44992e-15
1.48802e-15
1.52707e-15
1.56708e-15
1.60809e-15
1.6501e-15
1.69314e-15
1.73724e-15
1.78241e-15
1.82868e-15
1.87608e-15
1.92462e-15
1.97433e-15
2.02524e-15
2.07736e-15
2.13073e-15
2.18536e-15
2.24129e-15
2.29853e-15
2.35712e-15
2.41708e-15
2.47843e-15
2.54119e-15
2.6054e-15
2.67109e-15
2.73826e-15
2.80695e-15
2.87719e-15
2.94899e-15
3.02239e-15
3.09739e-15
3.17404e-15
3.25234e-15
3.33232e-15
3.41399e-15
3.49739e-15
3.58251e-15
3.66939e-15
3.75803e-15
3.84845e-15
3.94065e-15
4.03465e-15
4.13044e-15
4.22803e-15
4.32743e-15
4.42861e-15
4.53159e-15
4.63633e-15
4.74284e-15
4.85107e-15
4.96101e-15
5.07261e-15
5.18585e-15
5.30065e-15
5.41698e-15
5.53476e-15
5.65391e-15
5.77435e-15
5.89597e-15
6.01867e-15
6.14231e-15
6.26675e-15
6.39183e-15
6.51738e-15
6.6432e-15
6.76906e-15
6.89473e-15
7.01993e-15
7.14436e-15
7.26771e-15
7.38961e-15
7.50967e-15
7.62745e-15
7.74248e-15
7.85425e-15
7.96217e-15
8.06566e-15
8.16402e-15
8.25654e-15
8.34245e-15
8.4209e-15
8.49102e-15
8.55185e-15
8.60243e-15
8.64176e-15
8.66887e-15
8.68282e-15
5.7994e-22
1.86057e-21
3.27292e-21
4.82116e-21
6.50758e-21
8.3355e-21
1.03094e-20
1.24347e-20
1.4718e-20
1.71664e-20
1.9788e-20
2.25911e-20
2.55848e-20
2.87781e-20
3.21806e-20
3.58019e-20
3.9652e-20
4.3741e-20
4.80791e-20
5.26769e-20
5.75452e-20
6.26947e-20
6.81367e-20
7.38825e-20
7.99437e-20
8.63322e-20
9.306e-20
1.0014e-19
1.07584e-19
1.15405e-19
1.23617e-19
1.32234e-19
1.41268e-19
1.50735e-19
1.60649e-19
1.71025e-19
1.81878e-19
1.93223e-19
2.05078e-19
2.17458e-19
2.30381e-19
2.43863e-19
2.57923e-19
2.72578e-19
2.87847e-19
3.03749e-19
3.20304e-19
3.37533e-19
3.55455e-19
3.74092e-19
3.93465e-19
4.13598e-19
4.34512e-19
4.56232e-19
4.78781e-19
5.02185e-19
5.26469e-19
5.51658e-19
5.77781e-19
6.04864e-19
6.32936e-19
6.62027e-19
6.92165e-19
7.23382e-19
7.5571e-19
7.89182e-19
8.23829e-19
8.59688e-19
8.96794e-19
9.35182e-19
9.74891e-19
1.01596e-18
1.05842e-18
1.10233e-18
1.14771e-18
1.19462e-18
1.2431e-18
1.29319e-18
1.34495e-18
1.39841e-18
1.45363e-18
1.51066e-18
1.56955e-18
1.63036e-18
1.69314e-18
1.75795e-18
1.82485e-18
1.89389e-18
1.96515e-18
2.03868e-18
2.11456e-18
2.19284e-18
2.2736e-18
2.35691e-18
2.44285e-18
2.53149e-18
2.6229e-18
2.71718e-18
2.8144e-18
2.91465e-18
3.01801e-18
3.12458e-18
3.23445e-18
3.34771e-18
3.46447e-18
3.58483e-18
3.70888e-18
3.83674e-18
3.96851e-18
4.10432e-18
4.24427e-18
4.38849e-18
4.53711e-18
4.69024e-18
4.84802e-18
5.01059e-18
5.17807e-18
5.35063e-18
5.52839e-18
5.71152e-18
5.90017e-18
6.0945e-18
6.29467e-18
6.50085e-18
6.71322e-18
6.93195e-18
7.15723e-18
7.38925e-18
7.6282e-18
7.87429e-18
8.12772e-18
8.38869e-18
8.65744e-18
8.93418e-18
9.21915e-18
9.51257e-18
9.81471e-18
1.01258e-17
1.04461e-17
1.07759e-17
1.11154e-17
1.1465e-17
1.18249e-17
1.21954e-17
1.25769e-17
1.29695e-17
1.33738e-17
1.37899e-17
1.42183e-17
1.46592e-17
1.51132e-17
1.55804e-17
1.60613e-17
1.65563e-17
1.70658e-17
1.75903e-17
1.813e-17
1.86856e-17
1.92573e-17
1.98458e-17
2.04514e-17
2.10747e-17
2.17161e-17
2.23762e-17
2.30556e-17
2.37546e-17
2.4474e-17
2.52143e-17
2.59761e-17
2.67599e-17
2.75665e-17
2.83965e-17
2.92505e-17
3.01292e-17
3.10333e-17
3.19635e-17
3.29206e-17
3.39054e-17
3.49185e-17
3.59608e-17
3.70332e-17
3.81365e-17
3.92714e-17
4.04391e-17
4.16403e-17
4.28759e-17
4.41471e-17
4.54547e-17
4.67997e-17
4.81834e-17
4.96066e-17
5.10705e-17
5.25763e-17
5.41251e-17
5.57181e-17
5.73566e-17
5.90418e-17
6.0775e-17
6.25576e-17
6.43908e-17
6.62762e-17
6.82152e-17
7.02093e-17
7.22599e-17
7.43687e-17
7.65372e-17
7.87671e-17
8.10602e-17
8.3418e-17
8.58425e-17
8.83354e-17
9.08987e-17
9.35342e-17
9.6244e-17
9.903e-17
1.01894e-16
1.04839e-16
1.07867e-16
1.1098e-16
1.14179e-16
1.17469e-16
1.20851e-16
1.24327e-16
1.279e-16
1.31573e-16
1.35349e-16
1.3923e-16
1.43219e-16
1.47319e-16
1.51533e-16
1.55865e-16
1.60316e-16
1.64891e-16
1.69593e-16
1.74425e-16
1.79391e-16
1.84494e-16
1.89738e-16
1.95127e-16
2.00664e-16
2.06354e-16
2.122e-16
2.18207e-16
2.24379e-16
2.3072e-16
2.37235e-16
2.43929e-16
2.50806e-16
2.57871e-16
2.65128e-16
2.72584e-16
2.80243e-16
2.8811e-16
2.96191e-16
3.04492e-16
3.13018e-16
3.21776e-16
3.3077e-16
3.40008e-16
3.49495e-16
3.59239e-16
3.69245e-16
3.79521e-16
3.90074e-16
4.0091e-16
4.12037e-16
4.23462e-16
4.35194e-16
4.47239e-16
4.59606e-16
4.72303e-16
4.85339e-16
4.98722e-16
5.12461e-16
5.26565e-16
5.41042e-16
5.55904e-16
5.71159e-16
5.86817e-16
6.02888e-16
6.19383e-16
6.36312e-16
6.53686e-16
6.71516e-16
6.89814e-16
7.08591e-16
7.27859e-16
7.4763e-16
7.67916e-16
7.8873e-16
8.10085e-16
8.31995e-16
8.54473e-16
8.77532e-16
9.01186e-16
9.25451e-16
9.50341e-16
9.75871e-16
1.00206e-15
1.02891e-15
1.05646e-15
1.0847e-15
1.11367e-15
1.14337e-15
1.17383e-15
1.20506e-15
1.23708e-15
1.26991e-15
1.30356e-15
1.33807e-15
1.37343e-15
1.40969e-15
1.44685e-15
1.48493e-15
1.52397e-15
1.56397e-15
1.60496e-15
1.64696e-15
1.69e-15
1.73409e-15
1.77927e-15
1.82555e-15
1.87295e-15
1.9215e-15
1.97123e-15
2.02216e-15
2.07431e-15
2.12772e-15
2.18239e-15
2.23837e-15
2.29567e-15
2.35432e-15
2.41434e-15
2.47577e-15
2.53863e-15
2.60295e-15
2.66874e-15
2.73604e-15
2.80487e-15
2.87526e-15
2.94724e-15
3.02081e-15
3.09603e-15
3.17289e-15
3.25144e-15
3.33168e-15
3.41365e-15
3.49736e-15
3.58284e-15
3.67009e-15
3.75914e-15
3.85e-15
3.94268e-15
4.0372e-15
4.13356e-15
4.23177e-15
4.33183e-15
4.43373e-15
4.53749e-15
4.64308e-15
4.7505e-15
4.85972e-15
4.97073e-15
5.08349e-15
5.19797e-15
5.31413e-15
5.43192e-15
5.55128e-15
5.67214e-15
5.79443e-15
5.91805e-15
6.04291e-15
6.16888e-15
6.29584e-15
6.42365e-15
6.55215e-15
6.68115e-15
6.81045e-15
6.93984e-15
7.06905e-15
7.19784e-15
7.32588e-15
7.45285e-15
7.57838e-15
7.70208e-15
7.8235e-15
7.94216e-15
8.05754e-15
8.16905e-15
8.27607e-15
8.37792e-15
8.47385e-15
8.56307e-15
8.6447e-15
8.71783e-15
8.78146e-15
8.83456e-15
8.87605e-15
8.90481e-15
8.91973e-15
5.68935e-22
1.82488e-21
3.20786e-21
4.72508e-21
6.3817e-21
8.18218e-21
1.01314e-20
1.22348e-20
1.4499e-20
1.6931e-20
1.95387e-20
2.23305e-20
2.53152e-20
2.8502e-20
3.19004e-20
3.55201e-20
3.93711e-20
4.34635e-20
4.78078e-20
5.24146e-20
5.72948e-20
6.24593e-20
6.79196e-20
7.36871e-20
7.97736e-20
8.61913e-20
9.29525e-20
1.0007e-19
1.07556e-19
1.15425e-19
1.23689e-19
1.32363e-19
1.41461e-19
1.50997e-19
1.60987e-19
1.71445e-19
1.82388e-19
1.9383e-19
2.0579e-19
2.18283e-19
2.31326e-19
2.44938e-19
2.59137e-19
2.7394e-19
2.89368e-19
3.0544e-19
3.22175e-19
3.39595e-19
3.5772e-19
3.76572e-19
3.96174e-19
4.16547e-19
4.37716e-19
4.59705e-19
4.82538e-19
5.06241e-19
5.30839e-19
5.56359e-19
5.8283e-19
6.10278e-19
6.38733e-19
6.68225e-19
6.98784e-19
7.30443e-19
7.63232e-19
7.97186e-19
8.32338e-19
8.68724e-19
9.06379e-19
9.45342e-19
9.8565e-19
1.02734e-18
1.07046e-18
1.11504e-18
1.16113e-18
1.20878e-18
1.25802e-18
1.30891e-18
1.36149e-18
1.41581e-18
1.47192e-18
1.52988e-18
1.58973e-18
1.65154e-18
1.71536e-18
1.78124e-18
1.84925e-18
1.91945e-18
1.99191e-18
2.06668e-18
2.14384e-18
2.22346e-18
2.3056e-18
2.39034e-18
2.47775e-18
2.56792e-18
2.66092e-18
2.75683e-18
2.85574e-18
2.95774e-18
3.06291e-18
3.17136e-18
3.28316e-18
3.39842e-18
3.51725e-18
3.63974e-18
3.76599e-18
3.89613e-18
4.03026e-18
4.16849e-18
4.31096e-18
4.45777e-18
4.60905e-18
4.76494e-18
4.92557e-18
5.09108e-18
5.2616e-18
5.43728e-18
5.61828e-18
5.80474e-18
5.99682e-18
6.19469e-18
6.39852e-18
6.60847e-18
6.82472e-18
7.04746e-18
7.27688e-18
7.51316e-18
7.7565e-18
8.00712e-18
8.26521e-18
8.531e-18
8.8047e-18
9.08656e-18
9.37679e-18
9.67565e-18
9.98337e-18
1.03002e-17
1.06265e-17
1.09624e-17
1.13082e-17
1.16643e-17
1.20309e-17
1.24083e-17
1.27968e-17
1.31968e-17
1.36086e-17
1.40325e-17
1.44689e-17
1.49181e-17
1.53805e-17
1.58564e-17
1.63464e-17
1.68506e-17
1.73697e-17
1.79039e-17
1.84538e-17
1.90198e-17
1.96023e-17
2.02018e-17
2.08188e-17
2.14537e-17
2.21072e-17
2.27798e-17
2.34718e-17
2.41841e-17
2.4917e-17
2.56712e-17
2.64473e-17
2.7246e-17
2.80677e-17
2.89134e-17
2.97834e-17
3.06787e-17
3.15999e-17
3.25477e-17
3.35229e-17
3.45262e-17
3.55585e-17
3.66205e-17
3.77131e-17
3.88372e-17
3.99937e-17
4.11834e-17
4.24073e-17
4.36664e-17
4.49616e-17
4.6294e-17
4.76645e-17
4.90743e-17
5.05245e-17
5.20162e-17
5.35506e-17
5.51287e-17
5.6752e-17
5.84216e-17
6.01387e-17
6.19049e-17
6.37213e-17
6.55894e-17
6.75106e-17
6.94865e-17
7.15184e-17
7.3608e-17
7.57569e-17
7.79667e-17
8.02391e-17
8.25757e-17
8.49785e-17
8.74491e-17
8.99895e-17
9.26016e-17
9.52874e-17
9.80488e-17
1.00888e-16
1.03807e-16
1.06808e-16
1.09893e-16
1.13065e-16
1.16326e-16
1.19679e-16
1.23125e-16
1.26668e-16
1.30309e-16
1.34053e-16
1.379e-16
1.41856e-16
1.45921e-16
1.501e-16
1.54394e-16
1.58809e-16
1.63345e-16
1.68008e-16
1.728e-16
1.77724e-16
1.82785e-16
1.87986e-16
1.93331e-16
1.98823e-16
2.04466e-16
2.10265e-16
2.16223e-16
2.22346e-16
2.28636e-16
2.35099e-16
2.4174e-16
2.48562e-16
2.55571e-16
2.62771e-16
2.70169e-16
2.77768e-16
2.85574e-16
2.93592e-16
3.01829e-16
3.1029e-16
3.1898e-16
3.27906e-16
3.37074e-16
3.4649e-16
3.5616e-16
3.66092e-16
3.76291e-16
3.86765e-16
3.97522e-16
4.08567e-16
4.19909e-16
4.31555e-16
4.43513e-16
4.55791e-16
4.68397e-16
4.8134e-16
4.94628e-16
5.0827e-16
5.22274e-16
5.36651e-16
5.51409e-16
5.66559e-16
5.82109e-16
5.98071e-16
6.14453e-16
6.31268e-16
6.48526e-16
6.66237e-16
6.84414e-16
7.03067e-16
7.22208e-16
7.41851e-16
7.62006e-16
7.82686e-16
8.03906e-16
8.25677e-16
8.48013e-16
8.70928e-16
8.94436e-16
9.18552e-16
9.4329e-16
9.68665e-16
9.94693e-16
1.02139e-15
1.04877e-15
1.07685e-15
1.10565e-15
1.13518e-15
1.16547e-15
1.19652e-15
1.22836e-15
1.26101e-15
1.29448e-15
1.3288e-15
1.36397e-15
1.40004e-15
1.437e-15
1.47489e-15
1.51372e-15
1.55352e-15
1.59431e-15
1.63611e-15
1.67894e-15
1.72283e-15
1.76779e-15
1.81385e-15
1.86104e-15
1.90938e-15
1.9589e-15
2.00961e-15
2.06155e-15
2.11473e-15
2.16919e-15
2.22495e-15
2.28204e-15
2.34048e-15
2.40029e-15
2.46151e-15
2.52417e-15
2.58828e-15
2.65388e-15
2.72099e-15
2.78963e-15
2.85984e-15
2.93164e-15
3.00506e-15
3.08012e-15
3.15684e-15
3.23526e-15
3.31539e-15
3.39726e-15
3.48089e-15
3.5663e-15
3.65351e-15
3.74254e-15
3.8334e-15
3.92612e-15
4.0207e-15
4.11716e-15
4.21551e-15
4.31574e-15
4.41788e-15
4.5219e-15
4.62782e-15
4.73562e-15
4.84529e-15
4.95681e-15
5.07017e-15
5.18533e-15
5.30226e-15
5.42091e-15
5.54124e-15
5.66319e-15
5.78669e-15
5.91166e-15
6.03802e-15
6.16566e-15
6.29446e-15
6.42431e-15
6.55504e-15
6.68651e-15
6.81853e-15
6.95089e-15
7.08338e-15
7.21574e-15
7.34771e-15
7.47897e-15
7.6092e-15
7.73802e-15
7.86503e-15
7.98979e-15
8.1118e-15
8.23054e-15
8.34542e-15
8.45581e-15
8.56099e-15
8.66023e-15
8.7527e-15
8.83749e-15
8.91366e-15
8.98015e-15
9.03586e-15
9.0796e-15
9.11011e-15
9.12605e-15
5.58542e-22
1.791e-21
3.14622e-21
4.63211e-21
6.25577e-21
8.0233e-21
9.94064e-21
1.20141e-20
1.42503e-20
1.66567e-20
1.92412e-20
2.20121e-20
2.49783e-20
2.81487e-20
3.15329e-20
3.51405e-20
3.89815e-20
4.30661e-20
4.74046e-20
5.20079e-20
5.68867e-20
6.20522e-20
6.75159e-20
7.32894e-20
7.93846e-20
8.58139e-20
9.25897e-20
9.97248e-20
1.07232e-19
1.15126e-19
1.23419e-19
1.32126e-19
1.41261e-19
1.5084e-19
1.60876e-19
1.71386e-19
1.82386e-19
1.93891e-19
2.0592e-19
2.18487e-19
2.31613e-19
2.45313e-19
2.59607e-19
2.74514e-19
2.90053e-19
3.06244e-19
3.23107e-19
3.40663e-19
3.58934e-19
3.77942e-19
3.97709e-19
4.18259e-19
4.39615e-19
4.61801e-19
4.84844e-19
5.08768e-19
5.33601e-19
5.59368e-19
5.86099e-19
6.13822e-19
6.42566e-19
6.72361e-19
7.03239e-19
7.35232e-19
7.68373e-19
8.02695e-19
8.38232e-19
8.75022e-19
9.131e-19
9.52504e-19
9.93272e-19
1.03545e-18
1.07906e-18
1.12417e-18
1.17081e-18
1.21902e-18
1.26886e-18
1.32037e-18
1.37359e-18
1.42858e-18
1.48539e-18
1.54407e-18
1.60467e-18
1.66726e-18
1.73189e-18
1.79862e-18
1.8675e-18
1.93861e-18
2.01201e-18
2.08776e-18
2.16593e-18
2.24659e-18
2.32982e-18
2.41568e-18
2.50426e-18
2.59564e-18
2.68988e-18
2.78709e-18
2.88734e-18
2.99072e-18
3.09733e-18
3.20725e-18
3.32059e-18
3.43743e-18
3.55789e-18
3.68207e-18
3.81008e-18
3.94202e-18
4.07802e-18
4.21818e-18
4.36263e-18
4.5115e-18
4.66491e-18
4.82299e-18
4.98589e-18
5.15373e-18
5.32666e-18
5.50483e-18
5.6884e-18
5.87751e-18
6.07233e-18
6.27302e-18
6.47975e-18
6.69271e-18
6.91206e-18
7.13799e-18
7.3707e-18
7.61038e-18
7.85722e-18
8.11145e-18
8.37327e-18
8.64289e-18
8.92056e-18
9.20649e-18
9.50092e-18
9.80411e-18
1.01163e-17
1.04378e-17
1.07688e-17
1.11095e-17
1.14604e-17
1.18217e-17
1.21936e-17
1.25765e-17
1.29708e-17
1.33766e-17
1.37944e-17
1.42245e-17
1.46673e-17
1.51231e-17
1.55922e-17
1.60752e-17
1.65723e-17
1.7084e-17
1.76107e-17
1.81528e-17
1.87108e-17
1.9285e-17
1.98761e-17
2.04844e-17
2.11105e-17
2.17549e-17
2.2418e-17
2.31005e-17
2.38028e-17
2.45255e-17
2.52693e-17
2.60347e-17
2.68223e-17
2.76327e-17
2.84667e-17
2.93248e-17
3.02078e-17
3.11164e-17
3.20512e-17
3.30131e-17
3.40027e-17
3.50209e-17
3.60686e-17
3.71464e-17
3.82553e-17
3.93961e-17
4.05698e-17
4.17772e-17
4.30193e-17
4.42971e-17
4.56116e-17
4.69639e-17
4.83549e-17
4.97857e-17
5.12575e-17
5.27715e-17
5.43287e-17
5.59305e-17
5.7578e-17
5.92725e-17
6.10153e-17
6.28079e-17
6.46515e-17
6.65475e-17
6.84975e-17
7.05029e-17
7.25653e-17
7.46862e-17
7.68673e-17
7.91102e-17
8.14166e-17
8.37884e-17
8.62272e-17
8.87349e-17
9.13134e-17
9.39648e-17
9.66908e-17
9.94938e-17
1.02376e-16
1.05339e-16
1.08385e-16
1.11517e-16
1.14736e-16
1.18046e-16
1.21449e-16
1.24947e-16
1.28543e-16
1.3224e-16
1.3604e-16
1.39945e-16
1.4396e-16
1.48087e-16
1.52329e-16
1.56688e-16
1.61169e-16
1.65774e-16
1.70508e-16
1.75372e-16
1.80371e-16
1.85508e-16
1.90788e-16
1.96213e-16
2.01788e-16
2.07517e-16
2.13404e-16
2.19453e-16
2.25668e-16
2.32054e-16
2.38615e-16
2.45356e-16
2.52282e-16
2.59397e-16
2.66707e-16
2.74217e-16
2.81932e-16
2.89856e-16
2.97997e-16
3.06359e-16
3.14949e-16
3.23772e-16
3.32833e-16
3.42141e-16
3.517e-16
3.61518e-16
3.71601e-16
3.81956e-16
3.92591e-16
4.03511e-16
4.14725e-16
4.2624e-16
4.38064e-16
4.50205e-16
4.62671e-16
4.7547e-16
4.88611e-16
5.02103e-16
5.15954e-16
5.30173e-16
5.4477e-16
5.59755e-16
5.75137e-16
5.90926e-16
6.07133e-16
6.23768e-16
6.40841e-16
6.58364e-16
6.76348e-16
6.94804e-16
7.13745e-16
7.33181e-16
7.53126e-16
7.73592e-16
7.94592e-16
8.16138e-16
8.38246e-16
8.60927e-16
8.84196e-16
9.08068e-16
9.32557e-16
9.57678e-16
9.83446e-16
1.00988e-15
1.03699e-15
1.06479e-15
1.09331e-15
1.12255e-15
1.15255e-15
1.1833e-15
1.21484e-15
1.24717e-15
1.28033e-15
1.31432e-15
1.34917e-15
1.3849e-15
1.42153e-15
1.45907e-15
1.49755e-15
1.53699e-15
1.57741e-15
1.61884e-15
1.66129e-15
1.70479e-15
1.74937e-15
1.79504e-15
1.84183e-15
1.88976e-15
1.93886e-15
1.98916e-15
2.04067e-15
2.09342e-15
2.14745e-15
2.20277e-15
2.25941e-15
2.3174e-15
2.37677e-15
2.43754e-15
2.49973e-15
2.56338e-15
2.62852e-15
2.69516e-15
2.76334e-15
2.83309e-15
2.90443e-15
2.97738e-15
3.05198e-15
3.12825e-15
3.20621e-15
3.28589e-15
3.36732e-15
3.45052e-15
3.53551e-15
3.62231e-15
3.71095e-15
3.80144e-15
3.8938e-15
3.98804e-15
4.08419e-15
4.18225e-15
4.28223e-15
4.38414e-15
4.48799e-15
4.59376e-15
4.70147e-15
4.8111e-15
4.92264e-15
5.03608e-15
5.15138e-15
5.26854e-15
5.3875e-15
5.50824e-15
5.63069e-15
5.75481e-15
5.88053e-15
6.00776e-15
6.13642e-15
6.26641e-15
6.39762e-15
6.5299e-15
6.66313e-15
6.79713e-15
6.93173e-15
7.06673e-15
7.20189e-15
7.33697e-15
7.47171e-15
7.60578e-15
7.73886e-15
7.87058e-15
8.00052e-15
8.12825e-15
8.25327e-15
8.37504e-15
8.49298e-15
8.60643e-15
8.7147e-15
8.81701e-15
8.91252e-15
9.0003e-15
9.07936e-15
9.1486e-15
9.20684e-15
9.25277e-15
9.285e-15
9.30196e-15
5.49343e-22
1.76091e-21
3.09147e-21
4.54879e-21
6.14095e-21
7.87539e-21
9.75932e-21
1.18e-20
1.40047e-20
1.63814e-20
1.89382e-20
2.16833e-20
2.46258e-20
2.77745e-20
3.11388e-20
3.47285e-20
3.85533e-20
4.26234e-20
4.69491e-20
5.15412e-20
5.64106e-20
6.15684e-20
6.70261e-20
7.27956e-20
7.88888e-20
8.53181e-20
9.20961e-20
9.92358e-20
1.06751e-19
1.14654e-19
1.2296e-19
1.31682e-19
1.40836e-19
1.50437e-19
1.60499e-19
1.71039e-19
1.82072e-19
1.93616e-19
2.05687e-19
2.18302e-19
2.31479e-19
2.45237e-19
2.59594e-19
2.7457e-19
2.90183e-19
3.06455e-19
3.23406e-19
3.41056e-19
3.59429e-19
3.78545e-19
3.98429e-19
4.19103e-19
4.40592e-19
4.6292e-19
4.86114e-19
5.10198e-19
5.352e-19
5.61147e-19
5.88068e-19
6.15992e-19
6.44948e-19
6.74967e-19
7.06081e-19
7.38322e-19
7.71723e-19
8.06319e-19
8.42144e-19
8.79235e-19
9.17629e-19
9.57364e-19
9.9848e-19
1.04102e-18
1.08501e-18
1.13052e-18
1.17757e-18
1.22622e-18
1.2765e-18
1.32848e-18
1.38219e-18
1.43769e-18
1.49503e-18
1.55426e-18
1.61544e-18
1.67863e-18
1.74387e-18
1.81125e-18
1.8808e-18
1.95261e-18
2.02672e-18
2.10322e-18
2.18217e-18
2.26364e-18
2.3477e-18
2.43443e-18
2.52391e-18
2.61621e-18
2.71143e-18
2.80963e-18
2.91091e-18
3.01537e-18
3.12308e-18
3.23415e-18
3.34867e-18
3.46674e-18
3.58847e-18
3.71396e-18
3.84332e-18
3.97666e-18
4.1141e-18
4.25576e-18
4.40176e-18
4.55222e-18
4.70728e-18
4.86707e-18
5.03172e-18
5.20138e-18
5.37618e-18
5.55629e-18
5.74185e-18
5.93303e-18
6.12997e-18
6.33286e-18
6.54186e-18
6.75715e-18
6.97891e-18
7.20734e-18
7.44261e-18
7.68493e-18
7.93451e-18
8.19155e-18
8.45627e-18
8.72889e-18
9.00963e-18
9.29875e-18
9.59646e-18
9.90303e-18
1.02187e-17
1.05438e-17
1.08784e-17
1.12231e-17
1.15779e-17
1.19432e-17
1.23193e-17
1.27065e-17
1.31052e-17
1.35156e-17
1.39381e-17
1.4373e-17
1.48208e-17
1.52817e-17
1.57562e-17
1.62446e-17
1.67473e-17
1.72648e-17
1.77975e-17
1.83457e-17
1.891e-17
1.94908e-17
2.00886e-17
2.07039e-17
2.13371e-17
2.19887e-17
2.26594e-17
2.33496e-17
2.406e-17
2.47909e-17
2.55432e-17
2.63173e-17
2.71139e-17
2.79336e-17
2.87771e-17
2.9645e-17
3.05381e-17
3.14571e-17
3.24026e-17
3.33755e-17
3.43765e-17
3.54064e-17
3.6466e-17
3.75562e-17
3.86778e-17
3.98317e-17
4.10189e-17
4.22402e-17
4.34966e-17
4.47891e-17
4.61187e-17
4.74865e-17
4.88935e-17
5.03408e-17
5.18296e-17
5.3361e-17
5.49362e-17
5.65565e-17
5.8223e-17
5.9937e-17
6.17e-17
6.35133e-17
6.53781e-17
6.72961e-17
6.92687e-17
7.12973e-17
7.33836e-17
7.5529e-17
7.77354e-17
8.00043e-17
8.23374e-17
8.47367e-17
8.72037e-17
8.97406e-17
9.2349e-17
9.50312e-17
9.77889e-17
1.00624e-16
1.0354e-16
1.06537e-16
1.09619e-16
1.12787e-16
1.16044e-16
1.19393e-16
1.22835e-16
1.26374e-16
1.30012e-16
1.33752e-16
1.37596e-16
1.41547e-16
1.45609e-16
1.49784e-16
1.54075e-16
1.58486e-16
1.63019e-16
1.67678e-16
1.72467e-16
1.77388e-16
1.82446e-16
1.87643e-16
1.92985e-16
1.98474e-16
2.04114e-16
2.09911e-16
2.15866e-16
2.21986e-16
2.28274e-16
2.34735e-16
2.41374e-16
2.48194e-16
2.55202e-16
2.62401e-16
2.69797e-16
2.77395e-16
2.852e-16
2.93219e-16
3.01456e-16
3.09916e-16
3.18607e-16
3.27534e-16
3.36703e-16
3.46121e-16
3.55794e-16
3.65728e-16
3.7593e-16
3.86408e-16
3.97168e-16
4.08218e-16
4.19565e-16
4.31217e-16
4.43181e-16
4.55466e-16
4.68081e-16
4.81032e-16
4.94329e-16
5.07981e-16
5.21997e-16
5.36386e-16
5.51157e-16
5.66321e-16
5.81886e-16
5.97864e-16
6.14264e-16
6.31097e-16
6.48375e-16
6.66107e-16
6.84307e-16
7.02984e-16
7.22151e-16
7.41821e-16
7.62005e-16
7.82716e-16
8.03968e-16
8.25774e-16
8.48147e-16
8.71101e-16
8.9465e-16
9.18809e-16
9.43593e-16
9.69017e-16
9.95096e-16
1.02185e-15
1.04928e-15
1.07742e-15
1.10629e-15
1.13589e-15
1.16624e-15
1.19737e-15
1.22929e-15
1.26202e-15
1.29557e-15
1.32998e-15
1.36525e-15
1.40142e-15
1.43849e-15
1.47649e-15
1.51544e-15
1.55536e-15
1.59628e-15
1.63821e-15
1.68118e-15
1.72522e-15
1.77034e-15
1.81657e-15
1.86393e-15
1.91246e-15
1.96216e-15
2.01307e-15
2.06522e-15
2.11863e-15
2.17332e-15
2.22933e-15
2.28667e-15
2.34538e-15
2.40549e-15
2.46701e-15
2.52998e-15
2.59443e-15
2.66038e-15
2.72786e-15
2.79689e-15
2.86751e-15
2.93975e-15
3.01362e-15
3.08916e-15
3.1664e-15
3.24535e-15
3.32605e-15
3.40852e-15
3.49278e-15
3.57886e-15
3.66678e-15
3.75655e-15
3.84821e-15
3.94177e-15
4.03725e-15
4.13465e-15
4.234e-15
4.33529e-15
4.43855e-15
4.54377e-15
4.65096e-15
4.76011e-15
4.87122e-15
4.98428e-15
5.09926e-15
5.21615e-15
5.33493e-15
5.45555e-15
5.57798e-15
5.70217e-15
5.82806e-15
5.95558e-15
6.08466e-15
6.21522e-15
6.34714e-15
6.48032e-15
6.61462e-15
6.74991e-15
6.88602e-15
7.02277e-15
7.15995e-15
7.29735e-15
7.43472e-15
7.57178e-15
7.70823e-15
7.84373e-15
7.97791e-15
8.11036e-15
8.24064e-15
8.36825e-15
8.49266e-15
8.61326e-15
8.72941e-15
8.8404e-15
8.94543e-15
9.04365e-15
9.13412e-15
9.2158e-15
9.28754e-15
9.34808e-15
9.39603e-15
9.42984e-15
9.44773e-15
5.41636e-22
1.73569e-21
3.04564e-21
4.47881e-21
6.04365e-21
7.74852e-21
9.60168e-21
1.16113e-20
1.37857e-20
1.61331e-20
1.86619e-20
2.13808e-20
2.42986e-20
2.74245e-20
3.07675e-20
3.43374e-20
3.81439e-20
4.2197e-20
4.65071e-20
5.10849e-20
5.59411e-20
6.10871e-20
6.65343e-20
7.22946e-20
7.83799e-20
8.48029e-20
9.15761e-20
9.87127e-20
1.06226e-19
1.1413e-19
1.22438e-19
1.31166e-19
1.40327e-19
1.49937e-19
1.60011e-19
1.70565e-19
1.81617e-19
1.93181e-19
2.05276e-19
2.17919e-19
2.31128e-19
2.44921e-19
2.59317e-19
2.74336e-19
2.89997e-19
3.06321e-19
3.23329e-19
3.41042e-19
3.59483e-19
3.78672e-19
3.98635e-19
4.19394e-19
4.40975e-19
4.63401e-19
4.86699e-19
5.10894e-19
5.36015e-19
5.62089e-19
5.89144e-19
6.1721e-19
6.46317e-19
6.76496e-19
7.07778e-19
7.40197e-19
7.73786e-19