/*--------------------------------*- C++ -*----------------------------------*\
  =========                 |
  \\      /  F ield         | OpenFOAM: The Open Source CFD Toolbox
   \\    /   O peration     | Website:  https://openfoam.org
    \\  /    A nd           | Version:  dev
     \\/     M anipulation  |
\*---------------------------------------------------------------------------*/
FoamFile
{
    format      ascii;
    class       volScalarField;
    location    "0.62";
    object      cov;
}
// * * * * * * * * * * * * * * * * * * * * * * * * * * * * * * * * * * * * * //

dimensions      [0 0 0 0 0 0 0];

internalField   uniform 0;

boundaryField
{
    frontAndBack
    {
        type            empty;
    }
    inlet
    {
        type            calculated;
        value           uniform 0;
    }
    outlet
    {
        type            calculated;
        value           uniform 0;
    }
    substrate
    {
        type            calculated;
        value           nonuniform List<scalar> 
400
(
0.723392
0.709436
0.699197
0.689838
0.680945
0.672481
0.664346
0.656453
0.648737
0.641155
0.633672
0.626261
0.618904
0.611584
0.604291
0.597014
0.589749
0.582492
0.575238
0.567987
0.560739
0.553493
0.54625
0.539012
0.53178
0.524556
0.517342
0.510141
0.502955
0.495786
0.488637
0.481511
0.474409
0.467335
0.46029
0.453278
0.4463
0.43936
0.432458
0.425598
0.418782
0.412011
0.405288
0.398614
0.391991
0.385422
0.378907
0.372449
0.366049
0.359708
0.353428
0.34721
0.341056
0.334966
0.328941
0.322983
0.317092
0.31127
0.305516
0.299833
0.294219
0.288677
0.283206
0.277807
0.27248
0.267225
0.262044
0.256935
0.251899
0.246936
0.242046
0.237229
0.232486
0.227815
0.223216
0.218691
0.214237
0.209855
0.205545
0.201305
0.197137
0.193038
0.189009
0.18505
0.181159
0.177337
0.173581
0.169893
0.166271
0.162715
0.159223
0.155796
0.152433
0.149132
0.145893
0.142716
0.139599
0.136542
0.133544
0.130604
0.127722
0.124896
0.122127
0.119412
0.116752
0.114145
0.11159
0.109088
0.106636
0.104235
0.101883
0.0995798
0.0973243
0.0951159
0.0929536
0.0908368
0.0887647
0.0867364
0.0847512
0.0828084
0.0809071
0.0790467
0.0772263
0.0754453
0.0737028
0.0719983
0.0703309
0.0687
0.0671049
0.0655448
0.0640192
0.0625273
0.0610684
0.059642
0.0582473
0.0568838
0.0555508
0.0542476
0.0529738
0.0517286
0.0505116
0.049322
0.0481595
0.0470233
0.0459129
0.0448278
0.0437676
0.0427315
0.0417192
0.0407301
0.0397637
0.0388195
0.0378972
0.036996
0.0361158
0.0352559
0.0344159
0.0335954
0.032794
0.0320112
0.0312467
0.0305
0.0297707
0.0290585
0.0283629
0.0276837
0.0270203
0.0263726
0.0257401
0.0251224
0.0245193
0.0239304
0.0233554
0.022794
0.0222458
0.0217106
0.0211881
0.0206779
0.0201799
0.0196936
0.0192189
0.0187555
0.0183031
0.0178615
0.0174304
0.0170095
0.0165987
0.0161977
0.0158062
0.0154242
0.0150512
0.0146872
0.0143318
0.013985
0.0136465
0.0133161
0.0129936
0.0126788
0.0123716
0.0120718
0.0117792
0.0114936
0.0112149
0.0109428
0.0106774
0.0104183
0.0101654
0.00991867
0.00967786
0.00944286
0.00921352
0.00898971
0.0087713
0.00855817
0.00835018
0.00814722
0.00794916
0.00775588
0.00756728
0.00738324
0.00720365
0.00702841
0.00685741
0.00669055
0.00652772
0.00636884
0.00621382
0.00606254
0.00591493
0.00577091
0.00563037
0.00549324
0.00535944
0.00522888
0.0051015
0.0049772
0.00485592
0.00473759
0.00462213
0.00450947
0.00439956
0.00429231
0.00418767
0.00408557
0.00398595
0.00388875
0.00379392
0.0037014
0.00361112
0.00352304
0.00343711
0.00335326
0.00327145
0.00319164
0.00311377
0.00303779
0.00296366
0.00289134
0.00282078
0.00275194
0.00268478
0.00261925
0.00255531
0.00249294
0.00243208
0.00237271
0.00231478
0.00225827
0.00220313
0.00214934
0.00209686
0.00204566
0.0019957
0.00194697
0.00189942
0.00185304
0.00180778
0.00176363
0.00172055
0.00167853
0.00163753
0.00159753
0.00155851
0.00152044
0.00148329
0.00144706
0.00141171
0.00137722
0.00134357
0.00131075
0.00127872
0.00124748
0.001217
0.00118726
0.00115825
0.00112995
0.00110234
0.0010754
0.00104912
0.00102348
0.000998473
0.000974072
0.000950268
0.000927044
0.000904388
0.000882285
0.000860722
0.000839685
0.000819163
0.000799141
0.000779609
0.000760554
0.000741964
0.000723829
0.000706136
0.000688876
0.000672037
0.00065561
0.000639585
0.00062395
0.000608698
0.000593819
0.000579303
0.000565141
0.000551326
0.000537848
0.0005247
0.000511873
0.00049936
0.000487152
0.000475243
0.000463625
0.000452291
0.000441234
0.000430447
0.000419924
0.000409658
0.000399644
0.000389874
0.000380343
0.000371045
0.000361974
0.000353126
0.000344494
0.000336073
0.000327859
0.000319845
0.000312028
0.000304402
0.000296964
0.000289707
0.000282629
0.000275724
0.000268989
0.00026242
0.000256012
0.000249762
0.000243667
0.000237721
0.000231923
0.000226269
0.000220755
0.000215379
0.000210136
0.000205026
0.000200044
0.000195188
0.000190456
0.000185845
0.000181353
0.000176978
0.000172718
0.000168571
0.000164537
0.000160613
0.000156798
0.000153092
0.000149493
0.000146003
0.00014262
0.000139346
0.00013618
0.000133125
0.000130181
0.000127352
0.00012464
0.000122049
0.000119583
0.000117247
0.000115047
0.00011299
0.000111086
0.000109342
0.000107769
0.00010638
0.000105187
0.000104204
0.000103446
0.000102928
0.000102664
)
;
    }
    Wall
    {
        type            calculated;
        value           nonuniform List<scalar> 
400
(
0.723392
0.709436
0.699198
0.689839
0.680945
0.67248
0.664345
0.656451
0.648735
0.641153
0.633669
0.626259
0.618901
0.611582
0.604288
0.597012
0.589747
0.58249
0.575236
0.567986
0.560737
0.553491
0.546249
0.539011
0.531779
0.524555
0.517341
0.510141
0.502955
0.495786
0.488637
0.481511
0.474409
0.467335
0.460291
0.453279
0.446301
0.439361
0.432459
0.425599
0.418783
0.412012
0.405289
0.398615
0.391993
0.385423
0.378909
0.372451
0.366051
0.35971
0.35343
0.347212
0.341058
0.334967
0.328943
0.322985
0.317094
0.311272
0.305518
0.299835
0.294221
0.288679
0.283208
0.277809
0.272482
0.267227
0.262046
0.256937
0.251901
0.246938
0.242048
0.237231
0.232488
0.227817
0.223219
0.218693
0.214239
0.209857
0.205547
0.201307
0.197139
0.19304
0.189011
0.185052
0.181161
0.177338
0.173583
0.169895
0.166273
0.162717
0.159225
0.155798
0.152434
0.149133
0.145895
0.142717
0.1396
0.136543
0.133545
0.130606
0.127723
0.124898
0.122128
0.119413
0.116753
0.114146
0.111591
0.109089
0.106637
0.104236
0.101884
0.0995809
0.0973254
0.0951169
0.0929547
0.0908379
0.0887657
0.0867374
0.0847522
0.0828094
0.0809081
0.0790476
0.0772272
0.0754461
0.0737037
0.0719991
0.0703318
0.0687008
0.0671057
0.0655456
0.06402
0.062528
0.0610692
0.0596427
0.058248
0.0568845
0.0555514
0.0542483
0.0529744
0.0517293
0.0505122
0.0493227
0.0481601
0.0470239
0.0459135
0.0448284
0.0437681
0.0427321
0.0417197
0.0407306
0.0397642
0.03882
0.0378976
0.0369965
0.0361162
0.0352563
0.0344164
0.0335959
0.0327944
0.0320117
0.0312471
0.0305004
0.0297711
0.0290589
0.0283633
0.027684
0.0270207
0.0263729
0.0257404
0.0251227
0.0245196
0.0239307
0.0233557
0.0227943
0.0222461
0.0217109
0.0211884
0.0206782
0.0201801
0.0196939
0.0192192
0.0187558
0.0183034
0.0178617
0.0174306
0.0170098
0.0165989
0.0161979
0.0158065
0.0154244
0.0150514
0.0146874
0.014332
0.0139852
0.0136467
0.0133163
0.0129938
0.012679
0.0123718
0.012072
0.0117794
0.0114938
0.011215
0.010943
0.0106775
0.0104184
0.0101656
0.00991882
0.00967801
0.009443
0.00921366
0.00898985
0.00877144
0.0085583
0.00835031
0.00814735
0.00794928
0.00775601
0.0075674
0.00738336
0.00720377
0.00702852
0.00685752
0.00669065
0.00652783
0.00636895
0.00621392
0.00606264
0.00591503
0.005771
0.00563046
0.00549333
0.00535953
0.00522897
0.00510158
0.00497729
0.00485601
0.00473767
0.00462221
0.00450955
0.00439963
0.00429238
0.00418774
0.00408564
0.00398602
0.00388882
0.00379399
0.00370146
0.00361118
0.0035231
0.00343717
0.00335332
0.00327151
0.0031917
0.00311382
0.00303785
0.00296372
0.0028914
0.00282083
0.00275199
0.00268482
0.00261929
0.00255536
0.00249298
0.00243213
0.00237275
0.00231483
0.00225831
0.00220317
0.00214938
0.0020969
0.0020457
0.00199574
0.00194701
0.00189946
0.00185307
0.00180781
0.00176366
0.00172058
0.00167856
0.00163756
0.00159756
0.00155854
0.00152046
0.00148332
0.00144708
0.00141173
0.00137724
0.0013436
0.00131077
0.00127874
0.0012475
0.00121702
0.00118728
0.00115827
0.00112997
0.00110236
0.00107542
0.00104914
0.0010235
0.000998492
0.000974091
0.000950285
0.000927062
0.000904405
0.000882301
0.000860738
0.000839701
0.000819178
0.000799156
0.000779624
0.000760568
0.000741978
0.000723842
0.00070615
0.000688889
0.00067205
0.000655623
0.000639597
0.000623962
0.000608709
0.00059383
0.000579313
0.000565152
0.000551336
0.000537859
0.00052471
0.000511883
0.000499369
0.000487161
0.000475252
0.000463634
0.000452299
0.000441242
0.000430455
0.000419932
0.000409666
0.000399651
0.000389881
0.00038035
0.000371052
0.000361981
0.000353132
0.0003445
0.000336079
0.000327865
0.000319851
0.000312034
0.000304408
0.000296969
0.000289712
0.000282634
0.000275729
0.000268994
0.000262424
0.000256017
0.000249767
0.000243671
0.000237725
0.000231927
0.000226273
0.000220759
0.000215382
0.00021014
0.000205029
0.000200047
0.000195191
0.000190459
0.000185848
0.000181356
0.000176981
0.000172721
0.000168574
0.000164539
0.000160615
0.0001568
0.000153094
0.000149496
0.000146005
0.000142622
0.000139348
0.000136182
0.000133127
0.000130183
0.000127354
0.000124642
0.000122051
0.000119584
0.000117248
0.000115049
0.000112992
0.000111087
0.000109343
0.000107771
0.000106382
0.000105189
0.000104206
0.000103448
0.00010293
0.000102665
)
;
    }
}


// ************************************************************************* //
