/*--------------------------------*- C++ -*----------------------------------*\
  =========                 |
  \\      /  F ield         | OpenFOAM: The Open Source CFD Toolbox
   \\    /   O peration     | Website:  https://openfoam.org
    \\  /    A nd           | Version:  dev
     \\/     M anipulation  |
\*---------------------------------------------------------------------------*/
FoamFile
{
    format      ascii;
    class       volScalarField;
    location    "0.62";
    object      Exp1;
}
// * * * * * * * * * * * * * * * * * * * * * * * * * * * * * * * * * * * * * //

dimensions      [0 0 0 0 0 0 0];

internalField   uniform 0;

boundaryField
{
    frontAndBack
    {
        type            empty;
    }
    inlet
    {
        type            calculated;
        value           uniform 0;
    }
    outlet
    {
        type            calculated;
        value           uniform 0;
    }
    substrate
    {
        type            calculated;
        value           nonuniform List<scalar> 
400
(
7.90652e-16
2.51826e-15
4.41889e-15
6.48457e-15
8.71666e-15
1.11229e-14
1.37108e-14
1.64884e-14
1.94644e-14
2.26485e-14
2.6051e-14
2.96827e-14
3.35546e-14
3.76784e-14
4.20656e-14
4.67285e-14
5.16792e-14
5.69302e-14
6.24942e-14
6.83839e-14
7.46125e-14
8.11933e-14
8.81397e-14
9.54656e-14
1.03185e-13
1.11312e-13
1.19861e-13
1.28848e-13
1.38287e-13
1.48193e-13
1.58584e-13
1.69474e-13
1.80881e-13
1.92821e-13
2.05312e-13
2.18371e-13
2.32017e-13
2.46268e-13
2.61143e-13
2.76662e-13
2.92844e-13
3.09709e-13
3.2728e-13
3.45576e-13
3.64619e-13
3.84433e-13
4.0504e-13
4.26463e-13
4.48727e-13
4.71856e-13
4.95875e-13
5.20811e-13
5.4669e-13
5.7354e-13
6.01387e-13
6.30261e-13
6.60192e-13
6.91208e-13
7.23342e-13
7.56625e-13
7.91089e-13
8.26768e-13
8.63696e-13
9.01908e-13
9.4144e-13
9.8233e-13
1.02461e-12
1.06833e-12
1.11353e-12
1.16023e-12
1.2085e-12
1.25836e-12
1.30987e-12
1.36307e-12
1.41801e-12
1.47474e-12
1.53329e-12
1.59373e-12
1.65611e-12
1.72048e-12
1.7869e-12
1.85541e-12
1.92608e-12
1.99897e-12
2.07414e-12
2.15165e-12
2.23156e-12
2.31394e-12
2.39886e-12
2.48638e-12
2.57658e-12
2.66954e-12
2.76531e-12
2.86399e-12
2.96564e-12
3.07035e-12
3.17821e-12
3.28929e-12
3.40369e-12
3.52149e-12
3.64278e-12
3.76766e-12
3.89623e-12
4.02857e-12
4.16481e-12
4.30502e-12
4.44934e-12
4.59785e-12
4.75068e-12
4.90794e-12
5.06975e-12
5.23622e-12
5.40748e-12
5.58365e-12
5.76488e-12
5.95128e-12
6.14299e-12
6.34016e-12
6.54292e-12
6.75142e-12
6.96582e-12
7.18626e-12
7.4129e-12
7.6459e-12
7.88543e-12
8.13166e-12
8.38476e-12
8.64489e-12
8.91226e-12
9.18703e-12
9.46941e-12
9.75958e-12
1.00577e-11
1.03641e-11
1.06789e-11
1.10022e-11
1.13344e-11
1.16757e-11
1.20262e-11
1.23863e-11
1.27561e-11
1.31359e-11
1.3526e-11
1.39265e-11
1.43378e-11
1.47602e-11
1.51938e-11
1.5639e-11
1.60961e-11
1.65653e-11
1.70469e-11
1.75413e-11
1.80488e-11
1.85696e-11
1.91042e-11
1.96527e-11
2.02156e-11
2.07932e-11
2.13859e-11
2.19939e-11
2.26178e-11
2.32578e-11
2.39143e-11
2.45877e-11
2.52785e-11
2.59869e-11
2.67135e-11
2.74587e-11
2.82228e-11
2.90064e-11
2.98098e-11
3.06335e-11
3.1478e-11
3.23437e-11
3.32312e-11
3.41409e-11
3.50734e-11
3.60291e-11
3.70085e-11
3.80122e-11
3.90407e-11
4.00946e-11
4.11745e-11
4.22808e-11
4.34142e-11
4.45753e-11
4.57646e-11
4.69828e-11
4.82306e-11
4.95084e-11
5.0817e-11
5.21571e-11
5.35292e-11
5.49341e-11
5.63725e-11
5.7845e-11
5.93524e-11
6.08954e-11
6.24747e-11
6.40911e-11
6.57454e-11
6.74382e-11
6.91704e-11
7.09428e-11
7.27562e-11
7.46114e-11
7.65092e-11
7.84505e-11
8.04361e-11
8.2467e-11
8.4544e-11
8.66679e-11
8.88398e-11
9.10604e-11
9.33309e-11
9.5652e-11
9.80248e-11
1.0045e-10
1.02929e-10
1.05463e-10
1.08052e-10
1.10698e-10
1.13402e-10
1.16164e-10
1.18986e-10
1.2187e-10
1.24815e-10
1.27823e-10
1.30895e-10
1.34033e-10
1.37237e-10
1.40509e-10
1.4385e-10
1.4726e-10
1.50742e-10
1.54296e-10
1.57924e-10
1.61626e-10
1.65405e-10
1.69261e-10
1.73196e-10
1.7721e-10
1.81306e-10
1.85484e-10
1.89746e-10
1.94093e-10
1.98527e-10
2.03048e-10
2.07658e-10
2.12359e-10
2.17152e-10
2.22038e-10
2.27019e-10
2.32096e-10
2.37271e-10
2.42544e-10
2.47918e-10
2.53394e-10
2.58973e-10
2.64657e-10
2.70447e-10
2.76344e-10
2.82351e-10
2.88469e-10
2.94698e-10
3.01042e-10
3.075e-10
3.14075e-10
3.20769e-10
3.27582e-10
3.34516e-10
3.41573e-10
3.48755e-10
3.56062e-10
3.63496e-10
3.7106e-10
3.78754e-10
3.8658e-10
3.94539e-10
4.02634e-10
4.10865e-10
4.19234e-10
4.27742e-10
4.36392e-10
4.45185e-10
4.54122e-10
4.63204e-10
4.72434e-10
4.81812e-10
4.91341e-10
5.01021e-10
5.10854e-10
5.20842e-10
5.30986e-10
5.41288e-10
5.51748e-10
5.62369e-10
5.73152e-10
5.84097e-10
5.95208e-10
6.06484e-10
6.17927e-10
6.2954e-10
6.41321e-10
6.53275e-10
6.654e-10
6.77699e-10
6.90173e-10
7.02824e-10
7.15651e-10
7.28657e-10
7.41843e-10
7.55209e-10
7.68756e-10
7.82487e-10
7.96401e-10
8.105e-10
8.24785e-10
8.39256e-10
8.53914e-10
8.68761e-10
8.83797e-10
8.99022e-10
9.14438e-10
9.30045e-10
9.45843e-10
9.61834e-10
9.78017e-10
9.94393e-10
1.01096e-09
1.02773e-09
1.04468e-09
1.06183e-09
1.07918e-09
1.09672e-09
1.11445e-09
1.13238e-09
1.1505e-09
1.16882e-09
1.18733e-09
1.20603e-09
1.22492e-09
1.244e-09
1.26327e-09
1.28274e-09
1.30238e-09
1.32222e-09
1.34224e-09
1.36244e-09
1.38282e-09
1.40338e-09
1.42412e-09
1.44503e-09
1.46611e-09
1.48735e-09
1.50876e-09
1.53033e-09
1.55205e-09
1.57392e-09
1.59593e-09
1.61808e-09
1.64036e-09
1.66277e-09
1.68528e-09
1.70791e-09
1.73063e-09
1.75344e-09
1.77632e-09
1.79926e-09
1.82225e-09
1.84527e-09
1.8683e-09
1.89133e-09
1.91433e-09
1.93729e-09
1.96017e-09
1.98295e-09
2.0056e-09
2.02809e-09
2.05038e-09
2.07243e-09
2.0942e-09
2.11563e-09
2.13668e-09
2.15729e-09
2.17739e-09
2.19691e-09
2.21578e-09
2.23392e-09
2.25122e-09
2.2676e-09
2.28294e-09
2.29713e-09
2.31003e-09
2.32152e-09
2.33145e-09
2.33967e-09
2.34604e-09
2.35041e-09
2.35264e-09
)
;
    }
    Wall
    {
        type            calculated;
        value           nonuniform List<scalar> 
400
(
7.90638e-16
2.51821e-15
4.4188e-15
6.48444e-15
8.71647e-15
1.11226e-14
1.37105e-14
1.64879e-14
1.94638e-14
2.26478e-14
2.60502e-14
2.96817e-14
3.35535e-14
3.7677e-14
4.20641e-14
4.67268e-14
5.16772e-14
5.6928e-14
6.24917e-14
6.83812e-14
7.46095e-14
8.119e-14
8.81361e-14
9.54617e-14
1.03181e-13
1.11307e-13
1.19856e-13
1.28843e-13
1.38281e-13
1.48187e-13
1.58578e-13
1.69468e-13
1.80874e-13
1.92814e-13
2.05305e-13
2.18364e-13
2.32009e-13
2.4626e-13
2.61134e-13
2.76652e-13
2.92834e-13
3.09699e-13
3.27269e-13
3.45564e-13
3.64607e-13
3.8442e-13
4.05026e-13
4.26449e-13
4.48712e-13
4.7184e-13
4.95859e-13
5.20795e-13
5.46673e-13
5.73521e-13
6.01368e-13
6.30241e-13
6.60171e-13
6.91187e-13
7.2332e-13
7.56602e-13
7.91065e-13
8.26743e-13
8.6367e-13
9.01881e-13
9.41412e-13
9.82301e-13
1.02458e-12
1.0683e-12
1.11349e-12
1.1602e-12
1.20846e-12
1.25833e-12
1.30984e-12
1.36304e-12
1.41797e-12
1.47469e-12
1.53325e-12
1.59369e-12
1.65607e-12
1.72043e-12
1.78685e-12
1.85536e-12
1.92603e-12
1.99892e-12
2.07408e-12
2.15159e-12
2.2315e-12
2.31388e-12
2.39879e-12
2.48632e-12
2.57652e-12
2.66946e-12
2.76524e-12
2.86391e-12
2.96556e-12
3.07027e-12
3.17812e-12
3.2892e-12
3.4036e-12
3.52139e-12
3.64268e-12
3.76756e-12
3.89612e-12
4.02847e-12
4.16469e-12
4.30491e-12
4.44922e-12
4.59773e-12
4.75056e-12
4.90781e-12
5.06961e-12
5.23608e-12
5.40734e-12
5.58351e-12
5.76473e-12
5.95112e-12
6.14283e-12
6.33999e-12
6.54275e-12
6.75125e-12
6.96564e-12
7.18607e-12
7.41271e-12
7.64571e-12
7.88523e-12
8.13145e-12
8.38454e-12
8.64467e-12
8.91203e-12
9.1868e-12
9.46917e-12
9.75933e-12
1.00575e-11
1.03638e-11
1.06786e-11
1.10019e-11
1.13341e-11
1.16754e-11
1.20259e-11
1.2386e-11
1.27558e-11
1.31356e-11
1.35256e-11
1.39262e-11
1.43375e-11
1.47598e-11
1.51934e-11
1.56386e-11
1.60957e-11
1.65649e-11
1.70465e-11
1.75409e-11
1.80484e-11
1.85692e-11
1.91037e-11
1.96522e-11
2.02151e-11
2.07927e-11
2.13853e-11
2.19934e-11
2.26172e-11
2.32572e-11
2.39137e-11
2.45871e-11
2.52779e-11
2.59863e-11
2.67129e-11
2.7458e-11
2.82221e-11
2.90057e-11
2.9809e-11
3.06327e-11
3.14772e-11
3.2343e-11
3.32304e-11
3.41401e-11
3.50725e-11
3.60282e-11
3.70076e-11
3.80113e-11
3.90398e-11
4.00937e-11
4.11735e-11
4.22798e-11
4.34132e-11
4.45742e-11
4.57635e-11
4.69817e-11
4.82294e-11
4.95072e-11
5.08158e-11
5.21558e-11
5.35279e-11
5.49328e-11
5.63712e-11
5.78437e-11
5.9351e-11
6.0894e-11
6.24733e-11
6.40896e-11
6.57438e-11
6.74366e-11
6.91688e-11
7.09411e-11
7.27544e-11
7.46096e-11
7.65074e-11
7.84486e-11
8.04343e-11
8.24651e-11
8.4542e-11
8.66659e-11
8.88377e-11
9.10583e-11
9.33287e-11
9.56498e-11
9.80225e-11
1.00448e-10
1.02927e-10
1.0546e-10
1.0805e-10
1.10696e-10
1.13399e-10
1.16162e-10
1.18984e-10
1.21867e-10
1.24812e-10
1.2782e-10
1.30892e-10
1.3403e-10
1.37234e-10
1.40506e-10
1.43846e-10
1.47257e-10
1.50738e-10
1.54293e-10
1.5792e-10
1.61623e-10
1.65401e-10
1.69257e-10
1.73192e-10
1.77206e-10
1.81302e-10
1.8548e-10
1.89742e-10
1.94089e-10
1.98522e-10
2.03043e-10
2.07654e-10
2.12355e-10
2.17147e-10
2.22033e-10
2.27014e-10
2.32091e-10
2.37266e-10
2.42539e-10
2.47913e-10
2.53388e-10
2.58967e-10
2.64651e-10
2.70441e-10
2.76338e-10
2.82345e-10
2.88462e-10
2.94692e-10
3.01035e-10
3.07493e-10
3.14068e-10
3.20762e-10
3.27575e-10
3.34509e-10
3.41566e-10
3.48747e-10
3.56054e-10
3.63489e-10
3.71052e-10
3.78746e-10
3.86571e-10
3.94531e-10
4.02625e-10
4.10856e-10
4.19225e-10
4.27733e-10
4.36383e-10
4.45175e-10
4.54112e-10
4.63194e-10
4.72423e-10
4.81801e-10
4.9133e-10
5.0101e-10
5.10843e-10
5.20831e-10
5.30975e-10
5.41276e-10
5.51736e-10
5.62357e-10
5.73139e-10
5.84085e-10
5.95195e-10
6.06471e-10
6.17914e-10
6.29526e-10
6.41308e-10
6.53261e-10
6.65386e-10
6.77685e-10
6.90159e-10
7.02809e-10
7.15636e-10
7.28642e-10
7.41827e-10
7.55193e-10
7.6874e-10
7.82471e-10
7.96385e-10
8.10483e-10
8.24768e-10
8.39239e-10
8.53897e-10
8.68743e-10
8.83779e-10
8.99004e-10
9.14419e-10
9.30026e-10
9.45824e-10
9.61814e-10
9.77997e-10
9.94373e-10
1.01094e-09
1.02771e-09
1.04466e-09
1.06181e-09
1.07916e-09
1.0967e-09
1.11443e-09
1.13236e-09
1.15048e-09
1.1688e-09
1.1873e-09
1.206e-09
1.2249e-09
1.24398e-09
1.26325e-09
1.28271e-09
1.30236e-09
1.32219e-09
1.34221e-09
1.36241e-09
1.3828e-09
1.40336e-09
1.42409e-09
1.445e-09
1.46608e-09
1.48733e-09
1.50873e-09
1.5303e-09
1.55202e-09
1.57389e-09
1.5959e-09
1.61805e-09
1.64033e-09
1.66274e-09
1.68525e-09
1.70788e-09
1.7306e-09
1.7534e-09
1.77628e-09
1.79923e-09
1.82221e-09
1.84523e-09
1.86827e-09
1.89129e-09
1.9143e-09
1.93725e-09
1.96014e-09
1.98292e-09
2.00557e-09
2.02806e-09
2.05035e-09
2.0724e-09
2.09416e-09
2.1156e-09
2.13665e-09
2.15725e-09
2.17735e-09
2.19688e-09
2.21575e-09
2.23389e-09
2.25119e-09
2.26757e-09
2.28291e-09
2.2971e-09
2.31e-09
2.32149e-09
2.33142e-09
2.33965e-09
2.34602e-09
2.35038e-09
2.35261e-09
)
;
    }
}


// ************************************************************************* //
