/*--------------------------------*- C++ -*----------------------------------*\
  =========                 |
  \\      /  F ield         | OpenFOAM: The Open Source CFD Toolbox
   \\    /   O peration     | Website:  https://openfoam.org
    \\  /    A nd           | Version:  dev
     \\/     M anipulation  |
\*---------------------------------------------------------------------------*/
FoamFile
{
    format      ascii;
    class       volScalarField;
    location    "0.62";
    object      N1;
}
// * * * * * * * * * * * * * * * * * * * * * * * * * * * * * * * * * * * * * //

dimensions      [0 0 0 0 0 0 0];

internalField   nonuniform List<scalar> 
8000
(
6.00301e-15
1.91246e-14
3.35649e-14
4.92636e-14
6.62313e-14
8.45273e-14
1.04209e-13
1.25338e-13
1.4798e-13
1.72212e-13
1.9811e-13
2.25757e-13
2.5524e-13
2.86645e-13
3.20064e-13
3.55588e-13
3.93312e-13
4.33332e-13
4.75745e-13
5.20649e-13
5.68144e-13
6.18334e-13
6.71322e-13
7.27214e-13
7.86117e-13
8.48143e-13
9.13402e-13
9.82009e-13
1.05408e-12
1.12974e-12
1.20911e-12
1.2923e-12
1.37946e-12
1.4707e-12
1.56617e-12
1.666e-12
1.77033e-12
1.8793e-12
1.99306e-12
2.11175e-12
2.23554e-12
2.36458e-12
2.49902e-12
2.63904e-12
2.78479e-12
2.93647e-12
3.09423e-12
3.25826e-12
3.42875e-12
3.60589e-12
3.78987e-12
3.98089e-12
4.17916e-12
4.38488e-12
4.59828e-12
4.81956e-12
5.04897e-12
5.28672e-12
5.53306e-12
5.78824e-12
6.05249e-12
6.32609e-12
6.60929e-12
6.90237e-12
7.20559e-12
7.51925e-12
7.84364e-12
8.17906e-12
8.52581e-12
8.88422e-12
9.2546e-12
9.63729e-12
1.00326e-11
1.0441e-11
1.08627e-11
1.12981e-11
1.17477e-11
1.22117e-11
1.26906e-11
1.31849e-11
1.36948e-11
1.4221e-11
1.47637e-11
1.53235e-11
1.59008e-11
1.64961e-11
1.71099e-11
1.77427e-11
1.8395e-11
1.90674e-11
1.97603e-11
2.04744e-11
2.12103e-11
2.19684e-11
2.27494e-11
2.3554e-11
2.43828e-11
2.52364e-11
2.61154e-11
2.70207e-11
2.79528e-11
2.89125e-11
2.99006e-11
3.09177e-11
3.19648e-11
3.30425e-11
3.41517e-11
3.52932e-11
3.64679e-11
3.76767e-11
3.89204e-11
4.02e-11
4.15165e-11
4.28708e-11
4.42639e-11
4.56968e-11
4.71706e-11
4.86864e-11
5.02452e-11
5.18481e-11
5.34964e-11
5.51912e-11
5.69336e-11
5.8725e-11
6.05667e-11
6.24598e-11
6.44057e-11
6.64058e-11
6.84615e-11
7.05742e-11
7.27453e-11
7.49764e-11
7.7269e-11
7.96246e-11
8.20448e-11
8.45313e-11
8.70858e-11
8.97099e-11
9.24053e-11
9.5174e-11
9.80177e-11
1.00938e-10
1.03938e-10
1.07018e-10
1.10181e-10
1.13428e-10
1.16763e-10
1.20186e-10
1.23701e-10
1.27309e-10
1.31013e-10
1.34815e-10
1.38718e-10
1.42723e-10
1.46833e-10
1.51052e-10
1.55381e-10
1.59822e-10
1.6438e-10
1.69056e-10
1.73854e-10
1.78776e-10
1.83824e-10
1.89003e-10
1.94315e-10
1.99764e-10
2.05352e-10
2.11082e-10
2.16959e-10
2.22984e-10
2.29163e-10
2.35498e-10
2.41993e-10
2.48651e-10
2.55476e-10
2.62472e-10
2.69643e-10
2.76993e-10
2.84525e-10
2.92244e-10
3.00154e-10
3.0826e-10
3.16564e-10
3.25073e-10
3.33789e-10
3.42719e-10
3.51866e-10
3.61234e-10
3.7083e-10
3.80658e-10
3.90722e-10
4.01028e-10
4.11581e-10
4.22386e-10
4.33448e-10
4.44773e-10
4.56366e-10
4.68232e-10
4.80379e-10
4.9281e-10
5.05532e-10
5.18551e-10
5.31874e-10
5.45505e-10
5.59451e-10
5.73719e-10
5.88315e-10
6.03245e-10
6.18516e-10
6.34135e-10
6.50109e-10
6.66444e-10
6.83147e-10
7.00226e-10
7.17688e-10
7.35539e-10
7.53788e-10
7.72441e-10
7.91507e-10
8.10993e-10
8.30907e-10
8.51257e-10
8.7205e-10
8.93296e-10
9.15001e-10
9.37175e-10
9.59825e-10
9.8296e-10
1.00659e-09
1.03072e-09
1.05536e-09
1.08053e-09
1.10622e-09
1.13245e-09
1.15923e-09
1.18656e-09
1.21446e-09
1.24294e-09
1.272e-09
1.30166e-09
1.33192e-09
1.36279e-09
1.39429e-09
1.42643e-09
1.45921e-09
1.49264e-09
1.52674e-09
1.56151e-09
1.59697e-09
1.63312e-09
1.66998e-09
1.70756e-09
1.74587e-09
1.78492e-09
1.82471e-09
1.86527e-09
1.9066e-09
1.94871e-09
1.99162e-09
2.03534e-09
2.07987e-09
2.12522e-09
2.17142e-09
2.21847e-09
2.26638e-09
2.31517e-09
2.36484e-09
2.41541e-09
2.46689e-09
2.51929e-09
2.57262e-09
2.62689e-09
2.68212e-09
2.73832e-09
2.7955e-09
2.85367e-09
2.91285e-09
2.97303e-09
3.03425e-09
3.0965e-09
3.15981e-09
3.22417e-09
3.28961e-09
3.35614e-09
3.42376e-09
3.49249e-09
3.56234e-09
3.63333e-09
3.70546e-09
3.77874e-09
3.85319e-09
3.92882e-09
4.00563e-09
4.08365e-09
4.16288e-09
4.24333e-09
4.32501e-09
4.40794e-09
4.49212e-09
4.57757e-09
4.66429e-09
4.7523e-09
4.84161e-09
4.93223e-09
5.02416e-09
5.11741e-09
5.212e-09
5.30794e-09
5.40523e-09
5.50389e-09
5.60391e-09
5.70532e-09
5.80812e-09
5.91231e-09
6.01791e-09
6.12493e-09
6.23336e-09
6.34322e-09
6.45452e-09
6.56725e-09
6.68144e-09
6.79708e-09
6.91417e-09
7.03273e-09
7.15276e-09
7.27427e-09
7.39725e-09
7.52171e-09
7.64766e-09
7.77509e-09
7.90402e-09
8.03444e-09
8.16635e-09
8.29975e-09
8.43465e-09
8.57104e-09
8.70892e-09
8.84829e-09
8.98915e-09
9.13149e-09
9.27531e-09
9.42061e-09
9.56737e-09
9.71559e-09
9.86527e-09
1.00164e-08
1.01689e-08
1.03229e-08
1.04783e-08
1.0635e-08
1.07932e-08
1.09526e-08
1.11134e-08
1.12756e-08
1.1439e-08
1.16036e-08
1.17695e-08
1.19365e-08
1.21047e-08
1.2274e-08
1.24444e-08
1.26157e-08
1.2788e-08
1.29612e-08
1.31352e-08
1.331e-08
1.34854e-08
1.36613e-08
1.38378e-08
1.40146e-08
1.41916e-08
1.43688e-08
1.45459e-08
1.47228e-08
1.48993e-08
1.50753e-08
1.52505e-08
1.54248e-08
1.55977e-08
1.57691e-08
1.59387e-08
1.61061e-08
1.6271e-08
1.64329e-08
1.65913e-08
1.67459e-08
1.68961e-08
1.70412e-08
1.71807e-08
1.73138e-08
1.74398e-08
1.75577e-08
1.76668e-08
1.77661e-08
1.78544e-08
1.79308e-08
1.7994e-08
1.8043e-08
1.80766e-08
1.80937e-08
5.88063e-15
1.8852e-14
3.31704e-14
4.88156e-14
6.5786e-14
8.41212e-14
1.03872e-13
1.25096e-13
1.47861e-13
1.72241e-13
1.98315e-13
2.26167e-13
2.55885e-13
2.87558e-13
3.21278e-13
3.57142e-13
3.95244e-13
4.35683e-13
4.78559e-13
5.23973e-13
5.72029e-13
6.22832e-13
6.76488e-13
7.33107e-13
7.928e-13
8.5568e-13
9.21862e-13
9.91466e-13
1.06461e-12
1.14142e-12
1.22202e-12
1.30655e-12
1.39512e-12
1.48788e-12
1.58497e-12
1.68652e-12
1.79268e-12
1.9036e-12
2.01942e-12
2.14031e-12
2.26642e-12
2.39792e-12
2.53496e-12
2.67773e-12
2.82639e-12
2.98112e-12
3.14211e-12
3.30953e-12
3.48359e-12
3.66449e-12
3.85241e-12
4.04757e-12
4.25018e-12
4.46045e-12
4.67862e-12
4.9049e-12
5.13952e-12
5.38274e-12
5.6348e-12
5.89594e-12
6.16642e-12
6.44652e-12
6.7365e-12
7.03665e-12
7.34724e-12
7.66857e-12
8.00095e-12
8.34469e-12
8.70009e-12
9.06749e-12
9.44722e-12
9.83963e-12
1.02451e-11
1.06639e-11
1.10965e-11
1.15432e-11
1.20044e-11
1.24806e-11
1.29721e-11
1.34794e-11
1.40029e-11
1.45431e-11
1.51003e-11
1.56751e-11
1.62679e-11
1.68793e-11
1.75098e-11
1.81598e-11
1.88299e-11
1.95207e-11
2.02327e-11
2.09664e-11
2.17226e-11
2.25017e-11
2.33044e-11
2.41314e-11
2.49833e-11
2.58607e-11
2.67644e-11
2.76951e-11
2.86534e-11
2.96402e-11
3.06562e-11
3.17021e-11
3.27789e-11
3.38872e-11
3.5028e-11
3.6202e-11
3.74103e-11
3.86536e-11
3.9933e-11
4.12493e-11
4.26036e-11
4.39969e-11
4.54301e-11
4.69043e-11
4.84207e-11
4.99803e-11
5.15842e-11
5.32336e-11
5.49296e-11
5.66736e-11
5.84667e-11
6.03102e-11
6.22055e-11
6.41538e-11
6.61565e-11
6.8215e-11
7.03308e-11
7.25052e-11
7.47399e-11
7.70364e-11
7.93962e-11
8.18209e-11
8.43122e-11
8.68717e-11
8.95012e-11
9.22025e-11
9.49773e-11
9.78275e-11
1.00755e-10
1.03762e-10
1.0685e-10
1.10021e-10
1.13277e-10
1.16621e-10
1.20054e-10
1.23578e-10
1.27197e-10
1.30912e-10
1.34726e-10
1.38641e-10
1.42659e-10
1.46783e-10
1.51015e-10
1.55359e-10
1.59816e-10
1.6439e-10
1.69083e-10
1.73898e-10
1.78839e-10
1.83907e-10
1.89106e-10
1.94439e-10
1.99909e-10
2.0552e-10
2.11275e-10
2.17176e-10
2.23228e-10
2.29433e-10
2.35796e-10
2.4232e-10
2.49009e-10
2.55866e-10
2.62895e-10
2.701e-10
2.77486e-10
2.85055e-10
2.92813e-10
3.00763e-10
3.0891e-10
3.17258e-10
3.25811e-10
3.34574e-10
3.43552e-10
3.52749e-10
3.6217e-10
3.7182e-10
3.81704e-10
3.91826e-10
4.02193e-10
4.12808e-10
4.23678e-10
4.34807e-10
4.46202e-10
4.57867e-10
4.69808e-10
4.82032e-10
4.94543e-10
5.07349e-10
5.20454e-10
5.33865e-10
5.47588e-10
5.61629e-10
5.75996e-10
5.90693e-10
6.05729e-10
6.21109e-10
6.36841e-10
6.52931e-10
6.69386e-10
6.86214e-10
7.03421e-10
7.21016e-10
7.39004e-10
7.57395e-10
7.76195e-10
7.95412e-10
8.15054e-10
8.35129e-10
8.55645e-10
8.7661e-10
8.98032e-10
9.1992e-10
9.42282e-10
9.65127e-10
9.88463e-10
1.0123e-09
1.03664e-09
1.06151e-09
1.0869e-09
1.11282e-09
1.13929e-09
1.16632e-09
1.19391e-09
1.22207e-09
1.25082e-09
1.28016e-09
1.31011e-09
1.34066e-09
1.37184e-09
1.40366e-09
1.43611e-09
1.46922e-09
1.503e-09
1.53745e-09
1.57258e-09
1.60841e-09
1.64495e-09
1.68221e-09
1.72019e-09
1.75891e-09
1.79839e-09
1.83863e-09
1.87964e-09
1.92143e-09
1.96402e-09
2.00742e-09
2.05163e-09
2.09668e-09
2.14257e-09
2.18931e-09
2.23692e-09
2.28541e-09
2.33478e-09
2.38506e-09
2.43625e-09
2.48837e-09
2.54142e-09
2.59542e-09
2.65039e-09
2.70632e-09
2.76324e-09
2.82117e-09
2.8801e-09
2.94005e-09
3.00104e-09
3.06307e-09
3.12616e-09
3.19032e-09
3.25557e-09
3.32191e-09
3.38936e-09
3.45793e-09
3.52763e-09
3.59847e-09
3.67047e-09
3.74364e-09
3.81798e-09
3.89352e-09
3.97026e-09
4.04821e-09
4.12739e-09
4.20781e-09
4.28948e-09
4.37241e-09
4.45661e-09
4.5421e-09
4.62887e-09
4.71696e-09
4.80636e-09
4.89708e-09
4.98915e-09
5.08256e-09
5.17733e-09
5.27347e-09
5.37098e-09
5.46988e-09
5.57018e-09
5.67189e-09
5.77501e-09
5.87956e-09
5.98554e-09
6.09296e-09
6.20183e-09
6.31216e-09
6.42395e-09
6.53722e-09
6.65197e-09
6.7682e-09
6.88593e-09
7.00516e-09
7.12589e-09
7.24814e-09
7.3719e-09
7.49718e-09
7.62398e-09
7.75232e-09
7.88218e-09
8.01358e-09
8.14652e-09
8.281e-09
8.41702e-09
8.55458e-09
8.69368e-09
8.83433e-09
8.97651e-09
9.12023e-09
9.26549e-09
9.41228e-09
9.56059e-09
9.71043e-09
9.86178e-09
1.00146e-08
1.0169e-08
1.03248e-08
1.04822e-08
1.0641e-08
1.08012e-08
1.09629e-08
1.1126e-08
1.12905e-08
1.14563e-08
1.16236e-08
1.17921e-08
1.19619e-08
1.2133e-08
1.23053e-08
1.24788e-08
1.26535e-08
1.28292e-08
1.3006e-08
1.31838e-08
1.33624e-08
1.3542e-08
1.37223e-08
1.39033e-08
1.40848e-08
1.42669e-08
1.44494e-08
1.46321e-08
1.48149e-08
1.49977e-08
1.51804e-08
1.53626e-08
1.55443e-08
1.57253e-08
1.59052e-08
1.60838e-08
1.62609e-08
1.64361e-08
1.66091e-08
1.67795e-08
1.69469e-08
1.71108e-08
1.72707e-08
1.74261e-08
1.75763e-08
1.77208e-08
1.78587e-08
1.79894e-08
1.81118e-08
1.82252e-08
1.83285e-08
1.84205e-08
1.85002e-08
1.85664e-08
1.86178e-08
1.86532e-08
1.86714e-08
5.77054e-15
1.8513e-14
3.25659e-14
4.79706e-14
6.47496e-14
8.29356e-14
1.02573e-13
1.23716e-13
1.46428e-13
1.70782e-13
1.96856e-13
2.24733e-13
2.54503e-13
2.86255e-13
3.20083e-13
3.56083e-13
3.94352e-13
4.34991e-13
4.78101e-13
5.23786e-13
5.7215e-13
6.23302e-13
6.7735e-13
7.34406e-13
7.94584e-13
8.58e-13
9.24772e-13
9.95022e-13
1.06887e-12
1.14645e-12
1.22789e-12
1.31332e-12
1.40287e-12
1.49668e-12
1.59491e-12
1.69768e-12
1.80515e-12
1.91747e-12
2.03479e-12
2.15728e-12
2.2851e-12
2.41841e-12
2.55738e-12
2.70219e-12
2.85303e-12
3.01006e-12
3.17348e-12
3.34348e-12
3.52026e-12
3.70402e-12
3.89497e-12
4.09331e-12
4.29927e-12
4.51307e-12
4.73493e-12
4.9651e-12
5.20381e-12
5.4513e-12
5.70783e-12
5.97366e-12
6.24905e-12
6.53428e-12
6.82962e-12
7.13537e-12
7.4518e-12
7.77924e-12
8.11798e-12
8.46834e-12
8.83065e-12
9.20525e-12
9.59247e-12
9.99267e-12
1.04062e-11
1.08335e-11
1.12748e-11
1.17306e-11
1.22013e-11
1.26873e-11
1.3189e-11
1.37069e-11
1.42413e-11
1.47928e-11
1.53618e-11
1.59488e-11
1.65543e-11
1.71788e-11
1.78228e-11
1.84868e-11
1.91714e-11
1.98772e-11
2.06047e-11
2.13545e-11
2.21273e-11
2.29236e-11
2.3744e-11
2.45893e-11
2.54602e-11
2.63572e-11
2.72811e-11
2.82326e-11
2.92125e-11
3.02215e-11
3.12604e-11
3.233e-11
3.34312e-11
3.45647e-11
3.57314e-11
3.69323e-11
3.81682e-11
3.944e-11
4.07487e-11
4.20954e-11
4.34808e-11
4.49062e-11
4.63726e-11
4.78809e-11
4.94324e-11
5.10282e-11
5.26694e-11
5.43572e-11
5.60928e-11
5.78775e-11
5.97125e-11
6.15992e-11
6.35388e-11
6.55328e-11
6.75825e-11
6.96894e-11
7.1855e-11
7.40807e-11
7.63681e-11
7.87187e-11
8.11342e-11
8.36163e-11
8.61665e-11
8.87867e-11
9.14786e-11
9.4244e-11
9.70847e-11
1.00003e-10
1.03e-10
1.06078e-10
1.09239e-10
1.12486e-10
1.1582e-10
1.19244e-10
1.22759e-10
1.26368e-10
1.30073e-10
1.33877e-10
1.37782e-10
1.41791e-10
1.45905e-10
1.50128e-10
1.54462e-10
1.5891e-10
1.63475e-10
1.68159e-10
1.72965e-10
1.77896e-10
1.82955e-10
1.88146e-10
1.9347e-10
1.98932e-10
2.04535e-10
2.10281e-10
2.16175e-10
2.22219e-10
2.28417e-10
2.34773e-10
2.4129e-10
2.47972e-10
2.54823e-10
2.61847e-10
2.69046e-10
2.76427e-10
2.83992e-10
2.91745e-10
2.99692e-10
3.07835e-10
3.16181e-10
3.24732e-10
3.33494e-10
3.42471e-10
3.51667e-10
3.61089e-10
3.7074e-10
3.80626e-10
3.90751e-10
4.01121e-10
4.11741e-10
4.22616e-10
4.33752e-10
4.45154e-10
4.56827e-10
4.68778e-10
4.81013e-10
4.93536e-10
5.06355e-10
5.19475e-10
5.32902e-10
5.46642e-10
5.60703e-10
5.7509e-10
5.8981e-10
6.0487e-10
6.20276e-10
6.36035e-10
6.52155e-10
6.68642e-10
6.85503e-10
7.02746e-10
7.20379e-10
7.38408e-10
7.56841e-10
7.75687e-10
7.94952e-10
8.14645e-10
8.34774e-10
8.55346e-10
8.76371e-10
8.97856e-10
9.1981e-10
9.42241e-10
9.65158e-10
9.88571e-10
1.01249e-09
1.03692e-09
1.06187e-09
1.08735e-09
1.11337e-09
1.13994e-09
1.16707e-09
1.19477e-09
1.22305e-09
1.25192e-09
1.28139e-09
1.31146e-09
1.34215e-09
1.37347e-09
1.40543e-09
1.43804e-09
1.47131e-09
1.50525e-09
1.53987e-09
1.57519e-09
1.6112e-09
1.64793e-09
1.68539e-09
1.72358e-09
1.76252e-09
1.80222e-09
1.84269e-09
1.88394e-09
1.92598e-09
1.96883e-09
2.01249e-09
2.05698e-09
2.10232e-09
2.1485e-09
2.19555e-09
2.24347e-09
2.29229e-09
2.342e-09
2.39263e-09
2.44418e-09
2.49666e-09
2.5501e-09
2.6045e-09
2.65987e-09
2.71623e-09
2.77359e-09
2.83196e-09
2.89135e-09
2.95178e-09
3.01326e-09
3.0758e-09
3.13942e-09
3.20412e-09
3.26992e-09
3.33683e-09
3.40486e-09
3.47404e-09
3.54436e-09
3.61584e-09
3.6885e-09
3.76234e-09
3.83738e-09
3.91363e-09
3.9911e-09
4.06981e-09
4.14977e-09
4.23098e-09
4.31347e-09
4.39724e-09
4.4823e-09
4.56867e-09
4.65636e-09
4.74537e-09
4.83573e-09
4.92743e-09
5.0205e-09
5.11494e-09
5.21077e-09
5.30799e-09
5.40661e-09
5.50665e-09
5.60812e-09
5.71102e-09
5.81536e-09
5.92116e-09
6.02842e-09
6.13715e-09
6.24737e-09
6.35907e-09
6.47227e-09
6.58698e-09
6.70319e-09
6.82093e-09
6.9402e-09
7.061e-09
7.18334e-09
7.30723e-09
7.43267e-09
7.55967e-09
7.68823e-09
7.81836e-09
7.95005e-09
8.08333e-09
8.21818e-09
8.35461e-09
8.49262e-09
8.63222e-09
8.7734e-09
8.91616e-09
9.06051e-09
9.20645e-09
9.35396e-09
9.50306e-09
9.65372e-09
9.80596e-09
9.95977e-09
1.01151e-08
1.0272e-08
1.04305e-08
1.05905e-08
1.0752e-08
1.0915e-08
1.10795e-08
1.12455e-08
1.1413e-08
1.15818e-08
1.17522e-08
1.19238e-08
1.20969e-08
1.22713e-08
1.2447e-08
1.2624e-08
1.28021e-08
1.29815e-08
1.3162e-08
1.33436e-08
1.35262e-08
1.37097e-08
1.38941e-08
1.40794e-08
1.42653e-08
1.44519e-08
1.4639e-08
1.48265e-08
1.50143e-08
1.52022e-08
1.53902e-08
1.55779e-08
1.57653e-08
1.59522e-08
1.61383e-08
1.63234e-08
1.65073e-08
1.66895e-08
1.68699e-08
1.70481e-08
1.72236e-08
1.73962e-08
1.75652e-08
1.77301e-08
1.78906e-08
1.80458e-08
1.81951e-08
1.83379e-08
1.84732e-08
1.86003e-08
1.8718e-08
1.88255e-08
1.89216e-08
1.9005e-08
1.90745e-08
1.91287e-08
1.91663e-08
1.91858e-08
5.66104e-15
1.81579e-14
3.19187e-14
4.70147e-14
6.34973e-14
8.14105e-14
1.00802e-13
1.21728e-13
1.4425e-13
1.68441e-13
1.94377e-13
2.22142e-13
2.51823e-13
2.83511e-13
3.17299e-13
3.53283e-13
3.91563e-13
4.32237e-13
4.75409e-13
5.21184e-13
5.69668e-13
6.2097e-13
6.75201e-13
7.32474e-13
7.92906e-13
8.56614e-13
9.23719e-13
9.94345e-13
1.06862e-12
1.14667e-12
1.22863e-12
1.31463e-12
1.40482e-12
1.49932e-12
1.5983e-12
1.70189e-12
1.81025e-12
1.92354e-12
2.04191e-12
2.16552e-12
2.29454e-12
2.42914e-12
2.5695e-12
2.71579e-12
2.8682e-12
3.02691e-12
3.19212e-12
3.36403e-12
3.54282e-12
3.72872e-12
3.92193e-12
4.12267e-12
4.33115e-12
4.54762e-12
4.77229e-12
5.00542e-12
5.24724e-12
5.49801e-12
5.75798e-12
6.02742e-12
6.30661e-12
6.5958e-12
6.89531e-12
7.2054e-12
7.5264e-12
7.85859e-12
8.20231e-12
8.55787e-12
8.9256e-12
9.30585e-12
9.69897e-12
1.01053e-11
1.05253e-11
1.09592e-11
1.14074e-11
1.18705e-11
1.23487e-11
1.28424e-11
1.33523e-11
1.38785e-11
1.44217e-11
1.49822e-11
1.55606e-11
1.61574e-11
1.6773e-11
1.7408e-11
1.80628e-11
1.87381e-11
1.94344e-11
2.01522e-11
2.08922e-11
2.1655e-11
2.24411e-11
2.32512e-11
2.4086e-11
2.49461e-11
2.58322e-11
2.6745e-11
2.76852e-11
2.86536e-11
2.96509e-11
3.06779e-11
3.17354e-11
3.28242e-11
3.39451e-11
3.5099e-11
3.62869e-11
3.75095e-11
3.87678e-11
4.00627e-11
4.13953e-11
4.27665e-11
4.41774e-11
4.56289e-11
4.71222e-11
4.86583e-11
5.02384e-11
5.18637e-11
5.35352e-11
5.52543e-11
5.70222e-11
5.884e-11
6.07092e-11
6.26311e-11
6.46069e-11
6.66382e-11
6.87263e-11
7.08728e-11
7.3079e-11
7.53465e-11
7.7677e-11
8.0072e-11
8.25331e-11
8.5062e-11
8.76605e-11
9.03303e-11
9.30732e-11
9.58911e-11
9.87858e-11
1.01759e-10
1.04813e-10
1.0795e-10
1.11172e-10
1.14481e-10
1.17878e-10
1.21367e-10
1.2495e-10
1.28628e-10
1.32405e-10
1.36282e-10
1.40262e-10
1.44347e-10
1.48541e-10
1.52845e-10
1.57263e-10
1.61797e-10
1.66449e-10
1.71224e-10
1.76123e-10
1.8115e-10
1.86307e-10
1.91598e-10
1.97026e-10
2.02594e-10
2.08305e-10
2.14163e-10
2.20171e-10
2.26333e-10
2.32652e-10
2.39132e-10
2.45776e-10
2.52588e-10
2.59573e-10
2.66734e-10
2.74074e-10
2.81599e-10
2.89312e-10
2.97218e-10
3.0532e-10
3.13623e-10
3.22133e-10
3.30852e-10
3.39786e-10
3.48939e-10
3.58317e-10
3.67925e-10
3.77766e-10
3.87847e-10
3.98172e-10
4.08746e-10
4.19576e-10
4.30666e-10
4.42023e-10
4.5365e-10
4.65555e-10
4.77744e-10
4.90221e-10
5.02993e-10
5.16066e-10
5.29447e-10
5.43141e-10
5.57155e-10
5.71496e-10
5.8617e-10
6.01183e-10
6.16544e-10
6.32257e-10
6.48332e-10
6.64774e-10
6.8159e-10
6.9879e-10
7.16378e-10
7.34364e-10
7.52755e-10
7.71559e-10
7.90783e-10
8.10435e-10
8.30524e-10
8.51058e-10
8.72045e-10
8.93493e-10
9.15412e-10
9.37809e-10
9.60693e-10
9.84074e-10
1.00796e-09
1.03236e-09
1.05728e-09
1.08274e-09
1.10874e-09
1.13529e-09
1.1624e-09
1.19008e-09
1.21835e-09
1.2472e-09
1.27666e-09
1.30672e-09
1.33741e-09
1.36873e-09
1.40069e-09
1.4333e-09
1.46658e-09
1.50053e-09
1.53516e-09
1.57049e-09
1.60653e-09
1.64329e-09
1.68077e-09
1.719e-09
1.75797e-09
1.79771e-09
1.83823e-09
1.87953e-09
1.92163e-09
1.96454e-09
2.00827e-09
2.05284e-09
2.09825e-09
2.14452e-09
2.19167e-09
2.23969e-09
2.28861e-09
2.33844e-09
2.38918e-09
2.44086e-09
2.49348e-09
2.54706e-09
2.60161e-09
2.65715e-09
2.71367e-09
2.77121e-09
2.82977e-09
2.88936e-09
2.94999e-09
3.01169e-09
3.07446e-09
3.13831e-09
3.20326e-09
3.26932e-09
3.3365e-09
3.40482e-09
3.47429e-09
3.54492e-09
3.61673e-09
3.68972e-09
3.76391e-09
3.83931e-09
3.91594e-09
3.99381e-09
4.07292e-09
4.1533e-09
4.23495e-09
4.31789e-09
4.40213e-09
4.48768e-09
4.57456e-09
4.66277e-09
4.75232e-09
4.84324e-09
4.93552e-09
5.02919e-09
5.12425e-09
5.22071e-09
5.31859e-09
5.4179e-09
5.51864e-09
5.62083e-09
5.72448e-09
5.82959e-09
5.93618e-09
6.04426e-09
6.15383e-09
6.26491e-09
6.37751e-09
6.49163e-09
6.60728e-09
6.72447e-09
6.84321e-09
6.9635e-09
7.08536e-09
7.20879e-09
7.33379e-09
7.46038e-09
7.58855e-09
7.71832e-09
7.84969e-09
7.98266e-09
8.11724e-09
8.25343e-09
8.39124e-09
8.53066e-09
8.67171e-09
8.81437e-09
8.95866e-09
9.10457e-09
9.2521e-09
9.40126e-09
9.55203e-09
9.70442e-09
9.85843e-09
1.0014e-08
1.01713e-08
1.03301e-08
1.04905e-08
1.06525e-08
1.0816e-08
1.09811e-08
1.11478e-08
1.1316e-08
1.14857e-08
1.16569e-08
1.18296e-08
1.20037e-08
1.21793e-08
1.23563e-08
1.25346e-08
1.27143e-08
1.28953e-08
1.30775e-08
1.3261e-08
1.34456e-08
1.36314e-08
1.38182e-08
1.40059e-08
1.41946e-08
1.43842e-08
1.45745e-08
1.47654e-08
1.49569e-08
1.51488e-08
1.53411e-08
1.55335e-08
1.5726e-08
1.59183e-08
1.61103e-08
1.63018e-08
1.64925e-08
1.66822e-08
1.68707e-08
1.70577e-08
1.72427e-08
1.74256e-08
1.76058e-08
1.7783e-08
1.79567e-08
1.81264e-08
1.82915e-08
1.84514e-08
1.86054e-08
1.87527e-08
1.88926e-08
1.90241e-08
1.91462e-08
1.92579e-08
1.9358e-08
1.94452e-08
1.95182e-08
1.95754e-08
1.96152e-08
1.9636e-08
5.55765e-15
1.78209e-14
3.13054e-14
4.60898e-14
6.22445e-14
7.983e-14
9.8905e-14
1.19532e-13
1.41777e-13
1.65713e-13
1.91419e-13
2.18977e-13
2.48473e-13
2.79999e-13
3.13646e-13
3.49511e-13
3.87692e-13
4.28289e-13
4.71406e-13
5.17146e-13
5.65618e-13
6.16931e-13
6.71198e-13
7.28532e-13
7.89052e-13
8.52877e-13
9.2013e-13
9.90937e-13
1.06542e-12
1.14373e-12
1.22597e-12
1.31231e-12
1.40287e-12
1.49779e-12
1.59724e-12
1.70135e-12
1.81028e-12
1.9242e-12
2.04325e-12
2.16761e-12
2.29745e-12
2.43294e-12
2.57425e-12
2.72157e-12
2.87509e-12
3.03499e-12
3.20148e-12
3.37474e-12
3.55499e-12
3.74244e-12
3.9373e-12
4.13978e-12
4.35013e-12
4.56856e-12
4.79532e-12
5.03065e-12
5.2748e-12
5.52803e-12
5.79058e-12
6.06275e-12
6.34479e-12
6.637e-12
6.93967e-12
7.25308e-12
7.57755e-12
7.91339e-12
8.26092e-12
8.62047e-12
8.99238e-12
9.37699e-12
9.77466e-12
1.01858e-11
1.06107e-11
1.10497e-11
1.15034e-11
1.1972e-11
1.24561e-11
1.29559e-11
1.34721e-11
1.40049e-11
1.45549e-11
1.51226e-11
1.57084e-11
1.63128e-11
1.69363e-11
1.75795e-11
1.82429e-11
1.89271e-11
1.96325e-11
2.03599e-11
2.11098e-11
2.18827e-11
2.26794e-11
2.35005e-11
2.43466e-11
2.52184e-11
2.61166e-11
2.70419e-11
2.79951e-11
2.89769e-11
2.99881e-11
3.10294e-11
3.21016e-11
3.32057e-11
3.43424e-11
3.55126e-11
3.67172e-11
3.79571e-11
3.92333e-11
4.05468e-11
4.18984e-11
4.32892e-11
4.47203e-11
4.61927e-11
4.77076e-11
4.92659e-11
5.08689e-11
5.25178e-11
5.42137e-11
5.59578e-11
5.77514e-11
5.95959e-11
6.14925e-11
6.34425e-11
6.54475e-11
6.75087e-11
6.96276e-11
7.18058e-11
7.40446e-11
7.63458e-11
7.87109e-11
8.11414e-11
8.36392e-11
8.62058e-11
8.88431e-11
9.15529e-11
9.43368e-11
9.71969e-11
1.00135e-10
1.03153e-10
1.06253e-10
1.09438e-10
1.12708e-10
1.16066e-10
1.19515e-10
1.23057e-10
1.26694e-10
1.30428e-10
1.34262e-10
1.38198e-10
1.42238e-10
1.46386e-10
1.50644e-10
1.55014e-10
1.59499e-10
1.64102e-10
1.68826e-10
1.73673e-10
1.78648e-10
1.83751e-10
1.88988e-10
1.9436e-10
1.99872e-10
2.05525e-10
2.11325e-10
2.17273e-10
2.23374e-10
2.29631e-10
2.36048e-10
2.42628e-10
2.49375e-10
2.56294e-10
2.63387e-10
2.70659e-10
2.78114e-10
2.85756e-10
2.93589e-10
3.01618e-10
3.09846e-10
3.1828e-10
3.26922e-10
3.35777e-10
3.44851e-10
3.54149e-10
3.63674e-10
3.73432e-10
3.83428e-10
3.93667e-10
4.04154e-10
4.14896e-10
4.25896e-10
4.37162e-10
4.48697e-10
4.60509e-10
4.72602e-10
4.84983e-10
4.97658e-10
5.10633e-10
5.23914e-10
5.37507e-10
5.51419e-10
5.65656e-10
5.80226e-10
5.95133e-10
6.10386e-10
6.25992e-10
6.41957e-10
6.58288e-10
6.74994e-10
6.9208e-10
7.09555e-10
7.27426e-10
7.45701e-10
7.64387e-10
7.83494e-10
8.03027e-10
8.22997e-10
8.4341e-10
8.64275e-10
8.85601e-10
9.07397e-10
9.2967e-10
9.5243e-10
9.75686e-10
9.99446e-10
1.02372e-09
1.04852e-09
1.07385e-09
1.09972e-09
1.12614e-09
1.15312e-09
1.18068e-09
1.20881e-09
1.23754e-09
1.26687e-09
1.2968e-09
1.32736e-09
1.35855e-09
1.39039e-09
1.42287e-09
1.45602e-09
1.48985e-09
1.52436e-09
1.55957e-09
1.59548e-09
1.63211e-09
1.66948e-09
1.70759e-09
1.74644e-09
1.78607e-09
1.82647e-09
1.86766e-09
1.90965e-09
1.95245e-09
1.99608e-09
2.04054e-09
2.08585e-09
2.13202e-09
2.17907e-09
2.227e-09
2.27583e-09
2.32557e-09
2.37624e-09
2.42784e-09
2.48039e-09
2.5339e-09
2.58838e-09
2.64385e-09
2.70032e-09
2.75781e-09
2.81632e-09
2.87587e-09
2.93647e-09
2.99814e-09
3.06088e-09
3.12472e-09
3.18966e-09
3.25572e-09
3.32291e-09
3.39124e-09
3.46073e-09
3.53139e-09
3.60323e-09
3.67626e-09
3.75051e-09
3.82598e-09
3.90268e-09
3.98063e-09
4.05984e-09
4.14032e-09
4.22209e-09
4.30515e-09
4.38953e-09
4.47523e-09
4.56226e-09
4.65065e-09
4.74039e-09
4.83151e-09
4.92401e-09
5.0179e-09
5.1132e-09
5.20993e-09
5.30808e-09
5.40767e-09
5.50872e-09
5.61123e-09
5.71522e-09
5.82069e-09
5.92765e-09
6.03612e-09
6.14611e-09
6.25762e-09
6.37067e-09
6.48525e-09
6.6014e-09
6.7191e-09
6.83837e-09
6.95922e-09
7.08166e-09
7.20569e-09
7.33132e-09
7.45856e-09
7.58741e-09
7.71788e-09
7.84998e-09
7.9837e-09
8.11906e-09
8.25607e-09
8.39471e-09
8.535e-09
8.67694e-09
8.82054e-09
8.96579e-09
9.11269e-09
9.26125e-09
9.41146e-09
9.56333e-09
9.71686e-09
9.87203e-09
1.00288e-08
1.01873e-08
1.03474e-08
1.05091e-08
1.06725e-08
1.08375e-08
1.1004e-08
1.11722e-08
1.13419e-08
1.15132e-08
1.16861e-08
1.18605e-08
1.20364e-08
1.22138e-08
1.23927e-08
1.25729e-08
1.27546e-08
1.29377e-08
1.31221e-08
1.33078e-08
1.34948e-08
1.36829e-08
1.38722e-08
1.40626e-08
1.4254e-08
1.44463e-08
1.46396e-08
1.48336e-08
1.50283e-08
1.52235e-08
1.54193e-08
1.56154e-08
1.58117e-08
1.60081e-08
1.62043e-08
1.64003e-08
1.65957e-08
1.67904e-08
1.69842e-08
1.71768e-08
1.73678e-08
1.7557e-08
1.7744e-08
1.79284e-08
1.81098e-08
1.82877e-08
1.84616e-08
1.86309e-08
1.8795e-08
1.89532e-08
1.91048e-08
1.92488e-08
1.93845e-08
1.95107e-08
1.96264e-08
1.97304e-08
1.98212e-08
1.98975e-08
1.99576e-08
1.99997e-08
2.00219e-08
5.46614e-15
1.75216e-14
3.07608e-14
4.5261e-14
6.11023e-14
7.83587e-14
9.71015e-14
1.17402e-13
1.39335e-13
1.62976e-13
1.88405e-13
2.15708e-13
2.44969e-13
2.76279e-13
3.0973e-13
3.45417e-13
3.83437e-13
4.23891e-13
4.66882e-13
5.12513e-13
5.60892e-13
6.1213e-13
6.66339e-13
7.23635e-13
7.84137e-13
8.47964e-13
9.15242e-13
9.86096e-13
1.06066e-12
1.13906e-12
1.22144e-12
1.30793e-12
1.39868e-12
1.49383e-12
1.59354e-12
1.69795e-12
1.80722e-12
1.92152e-12
2.041e-12
2.16583e-12
2.2962e-12
2.43226e-12
2.5742e-12
2.72221e-12
2.87648e-12
3.03719e-12
3.20455e-12
3.37876e-12
3.56002e-12
3.74856e-12
3.94458e-12
4.14831e-12
4.35999e-12
4.57983e-12
4.8081e-12
5.04502e-12
5.29086e-12
5.54588e-12
5.81033e-12
6.0845e-12
6.36865e-12
6.66309e-12
6.9681e-12
7.28398e-12
7.61104e-12
7.9496e-12
8.29998e-12
8.66253e-12
9.03757e-12
9.42547e-12
9.82658e-12
1.02413e-11
1.06699e-11
1.11129e-11
1.15707e-11
1.20436e-11
1.25321e-11
1.30366e-11
1.35575e-11
1.40954e-11
1.46506e-11
1.52237e-11
1.58152e-11
1.64254e-11
1.70551e-11
1.77046e-11
1.83746e-11
1.90656e-11
1.97781e-11
2.05129e-11
2.12703e-11
2.20512e-11
2.2856e-11
2.36856e-11
2.45404e-11
2.54213e-11
2.63289e-11
2.7264e-11
2.82272e-11
2.92194e-11
3.02413e-11
3.12937e-11
3.23775e-11
3.34934e-11
3.46424e-11
3.58252e-11
3.70429e-11
3.82964e-11
3.95865e-11
4.09143e-11
4.22808e-11
4.3687e-11
4.51339e-11
4.66227e-11
4.81543e-11
4.973e-11
5.13509e-11
5.30182e-11
5.47331e-11
5.64969e-11
5.83107e-11
6.0176e-11
6.20941e-11
6.40662e-11
6.60939e-11
6.81786e-11
7.03217e-11
7.25247e-11
7.47892e-11
7.71168e-11
7.9509e-11
8.19675e-11
8.44941e-11
8.70904e-11
8.97581e-11
9.24992e-11
9.53155e-11
9.82088e-11
1.01181e-10
1.04234e-10
1.07371e-10
1.10592e-10
1.13901e-10
1.17299e-10
1.20788e-10
1.24371e-10
1.28051e-10
1.31829e-10
1.35708e-10
1.3969e-10
1.43779e-10
1.47975e-10
1.52283e-10
1.56705e-10
1.61244e-10
1.65902e-10
1.70682e-10
1.75587e-10
1.8062e-10
1.85785e-10
1.91084e-10
1.96521e-10
2.02098e-10
2.0782e-10
2.13689e-10
2.19709e-10
2.25883e-10
2.32216e-10
2.3871e-10
2.45369e-10
2.52198e-10
2.592e-10
2.66379e-10
2.73739e-10
2.81285e-10
2.89019e-10
2.96948e-10
3.05074e-10
3.13404e-10
3.2194e-10
3.30687e-10
3.39651e-10
3.48836e-10
3.58247e-10
3.67889e-10
3.77767e-10
3.87886e-10
3.98251e-10
4.08868e-10
4.19741e-10
4.30878e-10
4.42282e-10
4.5396e-10
4.65918e-10
4.78161e-10
4.90696e-10
5.03528e-10
5.16664e-10
5.3011e-10
5.43873e-10
5.57958e-10
5.72373e-10
5.87124e-10
6.02218e-10
6.17662e-10
6.33463e-10
6.49628e-10
6.66165e-10
6.8308e-10
7.00381e-10
7.18076e-10
7.36173e-10
7.54678e-10
7.73601e-10
7.92949e-10
8.1273e-10
8.32952e-10
8.53624e-10
8.74755e-10
8.96352e-10
9.18425e-10
9.40982e-10
9.64032e-10
9.87585e-10
1.01165e-09
1.03623e-09
1.06135e-09
1.087e-09
1.11321e-09
1.13997e-09
1.1673e-09
1.19521e-09
1.22371e-09
1.2528e-09
1.28251e-09
1.31283e-09
1.34379e-09
1.37538e-09
1.40763e-09
1.44054e-09
1.47412e-09
1.50838e-09
1.54334e-09
1.57901e-09
1.6154e-09
1.65251e-09
1.69036e-09
1.72897e-09
1.76834e-09
1.80848e-09
1.84941e-09
1.89115e-09
1.93369e-09
1.97706e-09
2.02126e-09
2.06631e-09
2.11222e-09
2.15901e-09
2.20668e-09
2.25525e-09
2.30473e-09
2.35513e-09
2.40647e-09
2.45876e-09
2.51201e-09
2.56624e-09
2.62145e-09
2.67767e-09
2.7349e-09
2.79315e-09
2.85245e-09
2.9128e-09
2.97422e-09
3.03672e-09
3.10032e-09
3.16502e-09
3.23084e-09
3.2978e-09
3.3659e-09
3.43516e-09
3.50559e-09
3.57722e-09
3.65004e-09
3.72407e-09
3.79934e-09
3.87584e-09
3.95359e-09
4.03261e-09
4.11291e-09
4.1945e-09
4.2774e-09
4.36161e-09
4.44715e-09
4.53404e-09
4.62228e-09
4.71189e-09
4.80288e-09
4.89527e-09
4.98905e-09
5.08426e-09
5.18089e-09
5.27897e-09
5.3785e-09
5.47949e-09
5.58195e-09
5.6859e-09
5.79135e-09
5.89831e-09
6.00678e-09
6.11679e-09
6.22833e-09
6.34142e-09
6.45607e-09
6.57228e-09
6.69008e-09
6.80946e-09
6.93043e-09
7.05301e-09
7.17719e-09
7.303e-09
7.43043e-09
7.55949e-09
7.6902e-09
7.82255e-09
7.95655e-09
8.0922e-09
8.22952e-09
8.36851e-09
8.50916e-09
8.65149e-09
8.7955e-09
8.94118e-09
9.08855e-09
9.23759e-09
9.38832e-09
9.54074e-09
9.69484e-09
9.85062e-09
1.00081e-08
1.01672e-08
1.0328e-08
1.04905e-08
1.06546e-08
1.08204e-08
1.09878e-08
1.11568e-08
1.13275e-08
1.14998e-08
1.16737e-08
1.18491e-08
1.20262e-08
1.22047e-08
1.23848e-08
1.25664e-08
1.27494e-08
1.29339e-08
1.31197e-08
1.3307e-08
1.34955e-08
1.36854e-08
1.38764e-08
1.40687e-08
1.4262e-08
1.44564e-08
1.46518e-08
1.48481e-08
1.50452e-08
1.5243e-08
1.54414e-08
1.56404e-08
1.58397e-08
1.60392e-08
1.62389e-08
1.64384e-08
1.66377e-08
1.68365e-08
1.70346e-08
1.72318e-08
1.74278e-08
1.76223e-08
1.7815e-08
1.80055e-08
1.81935e-08
1.83785e-08
1.856e-08
1.87375e-08
1.89105e-08
1.90783e-08
1.92402e-08
1.93955e-08
1.95433e-08
1.96826e-08
1.98125e-08
1.99318e-08
2.00393e-08
2.01334e-08
2.02128e-08
2.02755e-08
2.03197e-08
2.03431e-08
5.38947e-15
1.72707e-14
3.03048e-14
4.45649e-14
6.01344e-14
7.70966e-14
9.55335e-14
1.15526e-13
1.37156e-13
1.60506e-13
1.85658e-13
2.127e-13
2.41717e-13
2.72799e-13
3.06039e-13
3.4153e-13
3.79369e-13
4.19656e-13
4.62491e-13
5.07981e-13
5.56231e-13
6.07353e-13
6.61459e-13
7.18665e-13
7.7909e-13
8.42857e-13
9.10089e-13
9.80914e-13
1.05546e-12
1.13387e-12
1.21628e-12
1.30282e-12
1.39364e-12
1.48889e-12
1.58872e-12
1.69329e-12
1.80274e-12
1.91725e-12
2.03698e-12
2.16209e-12
2.29277e-12
2.42919e-12
2.57153e-12
2.71997e-12
2.87472e-12
3.03596e-12
3.2039e-12
3.37874e-12
3.56068e-12
3.74995e-12
3.94677e-12
4.15135e-12
4.36394e-12
4.58477e-12
4.81408e-12
5.05212e-12
5.29915e-12
5.55543e-12
5.82123e-12
6.09682e-12
6.38248e-12
6.67851e-12
6.98519e-12
7.30285e-12
7.63178e-12
7.97231e-12
8.32476e-12