/*--------------------------------*- C++ -*----------------------------------*\
  =========                 |
  \\      /  F ield         | OpenFOAM: The Open Source CFD Toolbox
   \\    /   O peration     | Website:  https://openfoam.org
    \\  /    A nd           | Version:  dev
     \\/     M anipulation  |
\*---------------------------------------------------------------------------*/
FoamFile
{
    format      ascii;
    class       volScalarField;
    location    "0.5";
    object      cov;
}
// * * * * * * * * * * * * * * * * * * * * * * * * * * * * * * * * * * * * * //

dimensions      [0 0 0 0 0 0 0];

internalField   uniform 0;

boundaryField
{
    frontAndBack
    {
        type            empty;
    }
    inlet
    {
        type            calculated;
        value           uniform 0;
    }
    outlet
    {
        type            calculated;
        value           uniform 0;
    }
    substrate
    {
        type            calculated;
        value           nonuniform List<scalar> 
400
(
0.723392
0.709436
0.699197
0.689838
0.680945
0.672481
0.664346
0.656453
0.648737
0.641155
0.633672
0.626261
0.618904
0.611584
0.604291
0.597014
0.589749
0.582492
0.575238
0.567987
0.560739
0.553493
0.54625
0.539012
0.53178
0.524556
0.517342
0.510141
0.502955
0.495786
0.488637
0.481511
0.474409
0.467335
0.46029
0.453278
0.4463
0.43936
0.432458
0.425598
0.418782
0.412011
0.405288
0.398614
0.391991
0.385422
0.378907
0.372449
0.366049
0.359708
0.353428
0.34721
0.341056
0.334966
0.328941
0.322983
0.317092
0.31127
0.305516
0.299833
0.294219
0.288677
0.283206
0.277807
0.27248
0.267225
0.262043
0.256935
0.251899
0.246936
0.242046
0.237229
0.232486
0.227815
0.223216
0.218691
0.214237
0.209855
0.205545
0.201305
0.197137
0.193038
0.189009
0.18505
0.181159
0.177337
0.173581
0.169893
0.166271
0.162715
0.159223
0.155796
0.152433
0.149132
0.145893
0.142716
0.139599
0.136542
0.133544
0.130604
0.127722
0.124896
0.122127
0.119412
0.116752
0.114145
0.11159
0.109088
0.106636
0.104235
0.101883
0.0995798
0.0973243
0.0951159
0.0929536
0.0908368
0.0887647
0.0867364
0.0847512
0.0828084
0.0809071
0.0790467
0.0772263
0.0754452
0.0737028
0.0719983
0.0703309
0.0687
0.0671049
0.0655448
0.0640192
0.0625273
0.0610684
0.059642
0.0582473
0.0568838
0.0555507
0.0542476
0.0529738
0.0517286
0.0505116
0.049322
0.0481594
0.0470232
0.0459129
0.0448278
0.0437675
0.0427315
0.0417192
0.04073
0.0397637
0.0388195
0.0378971
0.036996
0.0361158
0.0352559
0.0344159
0.0335954
0.032794
0.0320112
0.0312467
0.0305
0.0297707
0.0290585
0.0283629
0.0276837
0.0270203
0.0263726
0.02574
0.0251224
0.0245193
0.0239304
0.0233554
0.0227939
0.0222458
0.0217106
0.021188
0.0206779
0.0201798
0.0196936
0.0192189
0.0187555
0.0183031
0.0178614
0.0174303
0.0170095
0.0165987
0.0161976
0.0158062
0.0154241
0.0150511
0.0146871
0.0143318
0.0139849
0.0136464
0.013316
0.0129935
0.0126788
0.0123716
0.0120717
0.0117791
0.0114935
0.0112148
0.0109428
0.0106773
0.0104182
0.0101654
0.0099186
0.00967779
0.00944278
0.00921344
0.00898963
0.00877123
0.00855809
0.0083501
0.00814713
0.00794907
0.0077558
0.00756719
0.00738315
0.00720356
0.00702832
0.00685731
0.00669045
0.00652762
0.00636874
0.00621371
0.00606243
0.00591483
0.0057708
0.00563026
0.00549313
0.00535932
0.00522876
0.00510137
0.00497708
0.0048558
0.00473746
0.004622
0.00450934
0.00439942
0.00429217
0.00418752
0.00408542
0.0039858
0.0038886
0.00379377
0.00370124
0.00361096
0.00352288
0.00343694
0.00335309
0.00327128
0.00319147
0.00311359
0.00303761
0.00296348
0.00289116
0.00282059
0.00275175
0.00268458
0.00261905
0.00255511
0.00249273
0.00243187
0.0023725
0.00231457
0.00225805
0.00220291
0.00214911
0.00209663
0.00204542
0.00199547
0.00194673
0.00189918
0.00185279
0.00180753
0.00176337
0.00172029
0.00167826
0.00163726
0.00159726
0.00155823
0.00152016
0.00148301
0.00144677
0.00141142
0.00137692
0.00134327
0.00131044
0.00127841
0.00124717
0.00121668
0.00118694
0.00115793
0.00112962
0.001102
0.00107506
0.00104878
0.00102314
0.000998122
0.000973717
0.000949908
0.00092668
0.000904019
0.000881912
0.000860344
0.000839303
0.000818776
0.00079875
0.000779213
0.000760153
0.000741559
0.000723419
0.000705721
0.000688457
0.000671613
0.000655181
0.000639151
0.000623512
0.000608255
0.000593371
0.00057885
0.000564684
0.000550864
0.000537382
0.000524229
0.000511397
0.000498879
0.000486667
0.000474753
0.00046313
0.000451791
0.000440729
0.000429938
0.00041941
0.00040914
0.00039912
0.000389346
0.00037981
0.000370508
0.000361433
0.000352579
0.000343943
0.000335518
0.000327298
0.00031928
0.000311459
0.000303828
0.000296385
0.000289124
0.000282042
0.000275133
0.000268393
0.00026182
0.000255407
0.000249153
0.000243053
0.000237104
0.000231302
0.000225643
0.000220125
0.000214745
0.000209498
0.000204384
0.000199398
0.000194538
0.000189802
0.000185187
0.000180692
0.000176313
0.000172049
0.000167899
0.000163861
0.000159933
0.000156115
0.000152405
0.000148803
0.00014531
0.000141924
0.000138646
0.000135477
0.000132419
0.000129473
0.000126641
0.000123926
0.000121332
0.000118863
0.000116525
0.000114323
0.000112265
0.000110358
0.000108612
0.000107038
0.000105647
0.000104453
0.000103469
0.00010271
0.000102192
0.000101927
)
;
    }
    Wall
    {
        type            calculated;
        value           nonuniform List<scalar> 
400
(
0.723392
0.709436
0.699198
0.689839
0.680945
0.67248
0.664345
0.656451
0.648735
0.641153
0.633669
0.626259
0.618901
0.611582
0.604288
0.597012
0.589747
0.58249
0.575236
0.567986
0.560737
0.553491
0.546249
0.539011
0.531779
0.524555
0.517341
0.510141
0.502955
0.495786
0.488637
0.481511
0.474409
0.467335
0.460291
0.453279
0.446301
0.439361
0.432459
0.425599
0.418783
0.412012
0.405289
0.398615
0.391993
0.385423
0.378909
0.372451
0.366051
0.35971
0.35343
0.347212
0.341058
0.334967
0.328943
0.322985
0.317094
0.311272
0.305518
0.299835
0.294221
0.288679
0.283208
0.277809
0.272482
0.267227
0.262046
0.256937
0.251901
0.246938
0.242048
0.237231
0.232488
0.227817
0.223219
0.218693
0.214239
0.209857
0.205547
0.201307
0.197139
0.19304
0.189011
0.185052
0.181161
0.177338
0.173583
0.169895
0.166273
0.162717
0.159225
0.155798
0.152434
0.149133
0.145895
0.142717
0.1396
0.136543
0.133545
0.130606
0.127723
0.124898
0.122128
0.119413
0.116753
0.114146
0.111591
0.109089
0.106637
0.104236
0.101884
0.0995809
0.0973254
0.0951169
0.0929547
0.0908379
0.0887657
0.0867374
0.0847522
0.0828093
0.0809081
0.0790476
0.0772272
0.0754461
0.0737037
0.0719991
0.0703317
0.0687008
0.0671057
0.0655456
0.0640199
0.062528
0.0610691
0.0596427
0.058248
0.0568845
0.0555514
0.0542483
0.0529744
0.0517293
0.0505122
0.0493226
0.04816
0.0470238
0.0459135
0.0448284
0.0437681
0.042732
0.0417197
0.0407306
0.0397642
0.03882
0.0378976
0.0369965
0.0361162
0.0352563
0.0344163
0.0335958
0.0327944
0.0320116
0.0312471
0.0305004
0.0297711
0.0290589
0.0283633
0.027684
0.0270207
0.0263729
0.0257404
0.0251227
0.0245196
0.0239307
0.0233557
0.0227942
0.0222461
0.0217109
0.0211883
0.0206782
0.0201801
0.0196939
0.0192192
0.0187557
0.0183033
0.0178617
0.0174306
0.0170097
0.0165989
0.0161979
0.0158064
0.0154243
0.0150514
0.0146873
0.014332
0.0139851
0.0136466
0.0133162
0.0129937
0.012679
0.0123717
0.0120719
0.0117793
0.0114937
0.011215
0.0109429
0.0106775
0.0104184
0.0101655
0.00991875
0.00967794
0.00944293
0.00921358
0.00898977
0.00877136
0.00855822
0.00835023
0.00814726
0.0079492
0.00775592
0.00756731
0.00738327
0.00720368
0.00702843
0.00685742
0.00669056
0.00652773
0.00636885
0.00621381
0.00606253
0.00591492
0.00577089
0.00563035
0.00549322
0.00535941
0.00522885
0.00510146
0.00497716
0.00485588
0.00473754
0.00462208
0.00450942
0.00439949
0.00429224
0.0041876
0.00408549
0.00398587
0.00388867
0.00379384
0.00370131
0.00361103
0.00352294
0.003437
0.00335315
0.00327134
0.00319152
0.00311365
0.00303767
0.00296354
0.00289121
0.00282064
0.0027518
0.00268463
0.0026191
0.00255516
0.00249278
0.00243192
0.00237254
0.00231461
0.00225809
0.00220295
0.00214915
0.00209667
0.00204546
0.00199551
0.00194677
0.00189921
0.00185282
0.00180756
0.00176341
0.00172033
0.0016783
0.00163729
0.00159729
0.00155826
0.00152019
0.00148304
0.0014468
0.00141144
0.00137695
0.0013433
0.00131047
0.00127844
0.00124719
0.0012167
0.00118696
0.00115795
0.00112964
0.00110203
0.00107508
0.0010488
0.00102316
0.000998141
0.000973735
0.000949926
0.000926697
0.000904036
0.000881928
0.00086036
0.000839319
0.000818791
0.000798765
0.000779227
0.000760167
0.000741573
0.000723432
0.000705735
0.000688469
0.000671626
0.000655194
0.000639163
0.000623524
0.000608266
0.000593382
0.000578861
0.000564695
0.000550874
0.000537392
0.000524239
0.000511407
0.000498888
0.000486676
0.000474762
0.000463139
0.000451799
0.000440737
0.000429946
0.000419418
0.000409147
0.000399128
0.000389353
0.000379817
0.000370514
0.000361439
0.000352586
0.000343949
0.000335524
0.000327304
0.000319286
0.000311464
0.000303834
0.000296391
0.00028913
0.000282047
0.000275137
0.000268398
0.000261824
0.000255412
0.000249158
0.000243057
0.000237108
0.000231305
0.000225647
0.000220129
0.000214748
0.000209502
0.000204387
0.000199401
0.000194541
0.000189805
0.00018519
0.000180694
0.000176316
0.000172052
0.000167902
0.000163863
0.000159935
0.000156117
0.000152407
0.000148806
0.000145312
0.000141926
0.000138648
0.000135479
0.000132421
0.000129475
0.000126643
0.000123928
0.000121334
0.000118865
0.000116527
0.000114325
0.000112266
0.00011036
0.000108614
0.00010704
0.000105649
0.000104455
0.000103471
0.000102712
0.000102193
0.000101929
)
;
    }
}


// ************************************************************************* //
