/*--------------------------------*- C++ -*----------------------------------*\
  =========                 |
  \\      /  F ield         | OpenFOAM: The Open Source CFD Toolbox
   \\    /   O peration     | Website:  https://openfoam.org
    \\  /    A nd           | Version:  dev
     \\/     M anipulation  |
\*---------------------------------------------------------------------------*/
FoamFile
{
    format      ascii;
    class       volScalarField;
    location    "0.5";
    object      Exp1;
}
// * * * * * * * * * * * * * * * * * * * * * * * * * * * * * * * * * * * * * //

dimensions      [0 0 0 0 0 0 0];

internalField   uniform 0;

boundaryField
{
    frontAndBack
    {
        type            empty;
    }
    inlet
    {
        type            calculated;
        value           uniform 0;
    }
    outlet
    {
        type            calculated;
        value           uniform 0;
    }
    substrate
    {
        type            calculated;
        value           nonuniform List<scalar> 
400
(
5.06752e-13
1.61401e-12
2.83214e-12
4.15598e-12
5.58638e-12
7.12827e-12
8.78643e-12
1.05659e-11
1.24723e-11
1.45118e-11
1.66908e-11
1.90162e-11
2.14951e-11
2.41346e-11
2.69424e-11
2.9926e-11
3.3093e-11
3.64514e-11
4.00092e-11
4.37743e-11
4.7755e-11
5.19597e-11
5.63967e-11
6.10748e-11
6.60025e-11
7.11889e-11
7.6643e-11
8.2374e-11
8.83914e-11
9.47047e-11
1.01324e-10
1.08258e-10
1.15519e-10
1.23116e-10
1.3106e-10
1.39361e-10
1.48031e-10
1.57082e-10
1.66524e-10
1.76369e-10
1.8663e-10
1.97318e-10
2.08447e-10
2.20029e-10
2.32076e-10
2.44604e-10
2.57624e-10
2.71152e-10
2.85201e-10
2.99786e-10
3.14922e-10
3.30624e-10
3.46908e-10
3.63789e-10
3.81285e-10
3.99411e-10
4.18185e-10
4.37624e-10
4.57745e-10
4.78568e-10
5.00111e-10
5.22392e-10
5.45432e-10
5.6925e-10
5.93867e-10
6.19303e-10
6.45579e-10
6.72718e-10
7.00742e-10
7.29674e-10
7.59537e-10
7.90354e-10
8.2215e-10
8.54951e-10
8.88781e-10
9.23667e-10
9.59635e-10
9.96712e-10
1.03493e-09
1.07431e-09
1.11488e-09
1.15668e-09
1.19974e-09
1.24408e-09
1.28974e-09
1.33675e-09
1.38514e-09
1.43495e-09
1.48621e-09
1.53896e-09
1.59323e-09
1.64906e-09
1.70649e-09
1.76555e-09
1.82629e-09
1.88874e-09
1.95295e-09
2.01896e-09
2.0868e-09
2.15653e-09
2.22819e-09
2.30181e-09
2.37746e-09
2.45517e-09
2.53499e-09
2.61697e-09
2.70117e-09
2.78762e-09
2.87639e-09
2.96752e-09
3.06107e-09
3.1571e-09
3.25565e-09
3.35679e-09
3.46056e-09
3.56704e-09
3.67628e-09
3.78834e-09
3.90328e-09
4.02117e-09
4.14206e-09
4.26603e-09
4.39313e-09
4.52344e-09
4.65703e-09
4.79395e-09
4.93429e-09
5.07811e-09
5.22549e-09
5.37649e-09
5.5312e-09
5.68969e-09
5.85203e-09
6.01831e-09
6.1886e-09
6.36299e-09
6.54155e-09
6.72436e-09
6.91151e-09
7.10309e-09
7.29918e-09
7.49986e-09
7.70523e-09
7.91537e-09
8.13038e-09
8.35033e-09
8.57534e-09
8.80548e-09
9.04086e-09
9.28156e-09
9.52769e-09
9.77934e-09
1.00366e-08
1.02996e-08
1.05684e-08
1.08431e-08
1.11239e-08
1.14108e-08
1.17039e-08
1.20033e-08
1.23092e-08
1.26216e-08
1.29407e-08
1.32665e-08
1.35992e-08
1.39389e-08
1.42857e-08
1.46397e-08
1.50009e-08
1.53697e-08
1.57459e-08
1.61298e-08
1.65214e-08
1.69209e-08
1.73284e-08
1.77441e-08
1.81679e-08
1.86e-08
1.90406e-08
1.94898e-08
1.99477e-08
2.04143e-08
2.08899e-08
2.13745e-08
2.18682e-08
2.23712e-08
2.28835e-08
2.34054e-08
2.39368e-08
2.4478e-08
2.5029e-08
2.55899e-08
2.61609e-08
2.6742e-08
2.73335e-08
2.79353e-08
2.85476e-08
2.91706e-08
2.98042e-08
3.04487e-08
3.11041e-08
3.17706e-08
3.24482e-08
3.3137e-08
3.38371e-08
3.45487e-08
3.52719e-08
3.60067e-08
3.67532e-08
3.75115e-08
3.82817e-08
3.90639e-08
3.98582e-08
4.06647e-08
4.14834e-08
4.23144e-08
4.31579e-08
4.40138e-08
4.48823e-08
4.57634e-08
4.66571e-08
4.75636e-08
4.8483e-08
4.94152e-08
5.03603e-08
5.13183e-08
5.22894e-08
5.32735e-08
5.42708e-08
5.52812e-08
5.63047e-08
5.73414e-08
5.83914e-08
5.94545e-08
6.0531e-08
6.16207e-08
6.27237e-08
6.38399e-08
6.49695e-08
6.61123e-08
6.72684e-08
6.84377e-08
6.96202e-08
7.0816e-08
7.20249e-08
7.3247e-08
7.44821e-08
7.57303e-08
7.69915e-08
7.82657e-08
7.95528e-08
8.08526e-08
8.21652e-08
8.34905e-08
8.48284e-08
8.61788e-08
8.75415e-08
8.89166e-08
9.03039e-08
9.17032e-08
9.31145e-08
9.45376e-08
9.59725e-08
9.74189e-08
9.88767e-08
1.00346e-07
1.01826e-07
1.03317e-07
1.04819e-07
1.06332e-07
1.07855e-07
1.09388e-07
1.10931e-07
1.12485e-07
1.14047e-07
1.1562e-07
1.17201e-07
1.18792e-07
1.20391e-07
1.21998e-07
1.23614e-07
1.25238e-07
1.2687e-07
1.28509e-07
1.30156e-07
1.31809e-07
1.33469e-07
1.35136e-07
1.36808e-07
1.38487e-07
1.4017e-07
1.41859e-07
1.43553e-07
1.45252e-07
1.46954e-07
1.4866e-07
1.5037e-07
1.52083e-07
1.53799e-07
1.55518e-07
1.57238e-07
1.58961e-07
1.60684e-07
1.62409e-07
1.64134e-07
1.6586e-07
1.67585e-07
1.6931e-07
1.71034e-07
1.72756e-07
1.74477e-07
1.76196e-07
1.77912e-07
1.79625e-07
1.81335e-07
1.8304e-07
1.84742e-07
1.86439e-07
1.88131e-07
1.89818e-07
1.91498e-07
1.93173e-07
1.9484e-07
1.965e-07
1.98153e-07
1.99797e-07
2.01433e-07
2.0306e-07
2.04678e-07
2.06286e-07
2.07883e-07
2.0947e-07
2.11046e-07
2.1261e-07
2.14162e-07
2.15702e-07
2.17229e-07
2.18742e-07
2.20242e-07
2.21728e-07
2.232e-07
2.24656e-07
2.26097e-07
2.27523e-07
2.28932e-07
2.30325e-07
2.31701e-07
2.3306e-07
2.34402e-07
2.35725e-07
2.3703e-07
2.38317e-07
2.39584e-07
2.40832e-07
2.42061e-07
2.4327e-07
2.44459e-07
2.45627e-07
2.46774e-07
2.479e-07
2.49006e-07
2.50089e-07
2.51151e-07
2.52191e-07
2.53209e-07
2.54205e-07
2.55178e-07
2.56129e-07
2.57057e-07
2.57962e-07
2.58844e-07
2.59703e-07
2.60539e-07
2.61352e-07
2.62141e-07
2.62907e-07
2.63649e-07
2.64367e-07
2.65062e-07
2.65733e-07
2.6638e-07
2.67002e-07
2.676e-07
2.68174e-07
2.68722e-07
2.69245e-07
2.69743e-07
2.70213e-07
2.70657e-07
2.71073e-07
2.7146e-07
2.71816e-07
2.72141e-07
2.72433e-07
2.72691e-07
2.72911e-07
2.73092e-07
2.73231e-07
2.73326e-07
2.73374e-07
)
;
    }
    Wall
    {
        type            calculated;
        value           nonuniform List<scalar> 
400
(
5.06743e-13
1.61398e-12
2.83209e-12
4.1559e-12
5.58627e-12
7.12811e-12
8.78621e-12
1.05656e-11
1.2472e-11
1.45113e-11
1.66903e-11
1.90156e-11
2.14943e-11
2.41338e-11
2.69415e-11
2.99249e-11
3.30918e-11
3.645e-11
4.00076e-11
4.37726e-11
4.77531e-11
5.19576e-11
5.63945e-11
6.10724e-11
6.59999e-11
7.11861e-11
7.664e-11
8.23709e-11
8.8388e-11
9.47011e-11
1.0132e-10
1.08254e-10
1.15515e-10
1.23112e-10
1.31055e-10
1.39356e-10
1.48026e-10
1.57077e-10
1.66518e-10
1.76363e-10
1.86624e-10
1.97312e-10
2.0844e-10
2.20022e-10
2.32069e-10
2.44596e-10
2.57616e-10
2.71143e-10
2.85192e-10
2.99776e-10
3.14912e-10
3.30614e-10
3.46897e-10
3.63778e-10
3.81273e-10
3.99399e-10
4.18172e-10
4.37611e-10
4.57732e-10
4.78554e-10
5.00097e-10
5.22377e-10
5.45417e-10
5.69234e-10
5.9385e-10
6.19285e-10
6.45561e-10
6.727e-10
7.00723e-10
7.29654e-10
7.59516e-10
7.90333e-10
8.22129e-10
8.54928e-10
8.88758e-10
9.23643e-10
9.5961e-10
9.96687e-10
1.0349e-09
1.07428e-09
1.11485e-09
1.15665e-09
1.19971e-09
1.24405e-09
1.28971e-09
1.33671e-09
1.38511e-09
1.43491e-09
1.48617e-09
1.53892e-09
1.59319e-09
1.64902e-09
1.70645e-09
1.76551e-09
1.82624e-09
1.8887e-09
1.9529e-09
2.01891e-09
2.08675e-09
2.15648e-09
2.22813e-09
2.30176e-09
2.3774e-09
2.45511e-09
2.53493e-09
2.61691e-09
2.7011e-09
2.78755e-09
2.87632e-09
2.96745e-09
3.061e-09
3.15702e-09
3.25557e-09
3.3567e-09
3.46048e-09
3.56696e-09
3.67619e-09
3.78825e-09
3.90319e-09
4.02107e-09
4.14196e-09
4.26593e-09
4.39303e-09
4.52334e-09
4.65692e-09
4.79384e-09
4.93417e-09
5.07799e-09
5.22536e-09
5.37637e-09
5.53107e-09
5.68956e-09
5.8519e-09
6.01817e-09
6.18846e-09
6.36284e-09
6.5414e-09
6.72421e-09
6.91136e-09
7.10293e-09
7.29902e-09
7.4997e-09
7.70506e-09
7.9152e-09
8.1302e-09
8.35015e-09
8.57515e-09
8.80529e-09
9.04066e-09
9.28136e-09
9.52748e-09
9.77913e-09
1.00364e-08
1.02994e-08
1.05682e-08
1.08429e-08
1.11237e-08
1.14105e-08
1.17036e-08
1.20031e-08
1.23089e-08
1.26213e-08
1.29404e-08
1.32662e-08
1.35989e-08
1.39386e-08
1.42854e-08
1.46394e-08
1.50006e-08
1.53693e-08
1.57455e-08
1.61294e-08
1.65211e-08
1.69206e-08
1.73281e-08
1.77437e-08
1.81675e-08
1.85996e-08
1.90402e-08
1.94894e-08
1.99473e-08
2.04139e-08
2.08894e-08
2.1374e-08
2.18677e-08
2.23707e-08
2.2883e-08
2.34049e-08
2.39363e-08
2.44775e-08
2.50284e-08
2.55894e-08
2.61603e-08
2.67415e-08
2.73329e-08
2.79347e-08
2.8547e-08
2.917e-08
2.98036e-08
3.04481e-08
3.11035e-08
3.17699e-08
3.24475e-08
3.31363e-08
3.38365e-08
3.4548e-08
3.52712e-08
3.60059e-08
3.67524e-08
3.75107e-08
3.82809e-08
3.90631e-08
3.98574e-08
4.06639e-08
4.14826e-08
4.23136e-08
4.3157e-08
4.40129e-08
4.48814e-08
4.57625e-08
4.66562e-08
4.75627e-08
4.8482e-08
4.94142e-08
5.03593e-08
5.13173e-08
5.22884e-08
5.32725e-08
5.42697e-08
5.52801e-08
5.63036e-08
5.73403e-08
5.83902e-08
5.94534e-08
6.05298e-08
6.16195e-08
6.27225e-08
6.38387e-08
6.49682e-08
6.6111e-08
6.72671e-08
6.84364e-08
6.96189e-08
7.08146e-08
7.20235e-08
7.32456e-08
7.44807e-08
7.57289e-08
7.69901e-08
7.82643e-08
7.95513e-08
8.08511e-08
8.21637e-08
8.3489e-08
8.48268e-08
8.61772e-08
8.75399e-08
8.8915e-08
9.03022e-08
9.17015e-08
9.31128e-08
9.45359e-08
9.59708e-08
9.74172e-08
9.8875e-08
1.00344e-07
1.01824e-07
1.03315e-07
1.04817e-07
1.0633e-07
1.07853e-07
1.09386e-07
1.1093e-07
1.12483e-07
1.14045e-07
1.15618e-07
1.17199e-07
1.18789e-07
1.20389e-07
1.21996e-07
1.23612e-07
1.25236e-07
1.26868e-07
1.28507e-07
1.30154e-07
1.31807e-07
1.33467e-07
1.35133e-07
1.36806e-07
1.38484e-07
1.40168e-07
1.41857e-07
1.43551e-07
1.45249e-07
1.46952e-07
1.48658e-07
1.50368e-07
1.52081e-07
1.53797e-07
1.55515e-07
1.57236e-07
1.58958e-07
1.60682e-07
1.62406e-07
1.64131e-07
1.65857e-07
1.67582e-07
1.69307e-07
1.71031e-07
1.72753e-07
1.74474e-07
1.76193e-07
1.77909e-07
1.79622e-07
1.81332e-07
1.83038e-07
1.84739e-07
1.86436e-07
1.88128e-07
1.89815e-07
1.91496e-07
1.9317e-07
1.94837e-07
1.96497e-07
1.9815e-07
1.99795e-07
2.0143e-07
2.03057e-07
2.04675e-07
2.06283e-07
2.0788e-07
2.09467e-07
2.11043e-07
2.12607e-07
2.14159e-07
2.15699e-07
2.17226e-07
2.18739e-07
2.20239e-07
2.21725e-07
2.23197e-07
2.24653e-07
2.26094e-07
2.2752e-07
2.28929e-07
2.30322e-07
2.31698e-07
2.33057e-07
2.34399e-07
2.35722e-07
2.37027e-07
2.38314e-07
2.39581e-07
2.40829e-07
2.42058e-07
2.43267e-07
2.44455e-07
2.45624e-07
2.46771e-07
2.47897e-07
2.49002e-07
2.50086e-07
2.51148e-07
2.52188e-07
2.53206e-07
2.54202e-07
2.55175e-07
2.56126e-07
2.57054e-07
2.57959e-07
2.58841e-07
2.59701e-07
2.60536e-07
2.61349e-07
2.62138e-07
2.62904e-07
2.63646e-07
2.64364e-07
2.65059e-07
2.6573e-07
2.66377e-07
2.66999e-07
2.67598e-07
2.68171e-07
2.6872e-07
2.69243e-07
2.6974e-07
2.70211e-07
2.70655e-07
2.7107e-07
2.71457e-07
2.71814e-07
2.72139e-07
2.72431e-07
2.72689e-07
2.72909e-07
2.7309e-07
2.73229e-07
2.73325e-07
2.73373e-07
)
;
    }
}


// ************************************************************************* //
