/*--------------------------------*- C++ -*----------------------------------*\
  =========                 |
  \\      /  F ield         | OpenFOAM: The Open Source CFD Toolbox
   \\    /   O peration     | Website:  https://openfoam.org
    \\  /    A nd           | Version:  dev
     \\/     M anipulation  |
\*---------------------------------------------------------------------------*/
FoamFile
{
    format      ascii;
    class       volScalarField;
    location    "0.5";
    object      N1;
}
// * * * * * * * * * * * * * * * * * * * * * * * * * * * * * * * * * * * * * //

dimensions      [0 0 0 0 0 0 0];

internalField   nonuniform List<scalar> 
8000
(
3.8475e-12
1.22574e-11
2.15123e-11
3.15732e-11
4.24467e-11
5.41706e-11
6.67813e-11
8.03175e-11
9.48222e-11
1.10342e-10
1.26928e-10
1.44631e-10
1.63506e-10
1.83609e-10
2.04996e-10
2.27726e-10
2.51859e-10
2.77455e-10
3.04575e-10
3.3328e-10
3.63635e-10
3.95703e-10
4.29549e-10
4.6524e-10
5.02842e-10
5.42425e-10
5.84058e-10
6.27812e-10
6.73759e-10
7.21974e-10
7.72532e-10
8.2551e-10
8.80986e-10
9.39041e-10
9.99756e-10
1.06322e-09
1.1295e-09
1.19871e-09
1.27092e-09
1.34622e-09
1.42471e-09
1.50649e-09
1.59165e-09
1.68028e-09
1.77249e-09
1.86839e-09
1.96807e-09
2.07165e-09
2.17924e-09
2.29094e-09
2.40688e-09
2.52717e-09
2.65192e-09
2.78128e-09
2.91535e-09
3.05426e-09
3.19816e-09
3.34717e-09
3.50143e-09
3.66108e-09
3.82627e-09
3.99713e-09
4.17383e-09
4.35651e-09
4.54533e-09
4.74046e-09
4.94205e-09
5.15027e-09
5.3653e-09
5.58731e-09
5.81648e-09
6.053e-09
6.29704e-09
6.54881e-09
6.8085e-09
7.07631e-09
7.35245e-09
7.63712e-09
7.93054e-09
8.23293e-09
8.54451e-09
8.86551e-09
9.19617e-09
9.53672e-09
9.88741e-09
1.02485e-08
1.06202e-08
1.10028e-08
1.13966e-08
1.18018e-08
1.22188e-08
1.26477e-08
1.3089e-08
1.35428e-08
1.40095e-08
1.44894e-08
1.49828e-08
1.549e-08
1.60114e-08
1.65473e-08
1.70979e-08
1.76638e-08
1.82452e-08
1.88424e-08
1.9456e-08
2.00861e-08
2.07333e-08
2.13978e-08
2.20802e-08
2.27807e-08
2.34998e-08
2.4238e-08
2.49956e-08
2.57731e-08
2.65709e-08
2.73895e-08
2.82294e-08
2.90909e-08
2.99746e-08
3.08809e-08
3.18104e-08
3.27635e-08
3.37408e-08
3.47427e-08
3.57698e-08
3.68226e-08
3.79017e-08
3.90075e-08
4.01407e-08
4.13019e-08
4.24915e-08
4.37102e-08
4.49585e-08
4.62371e-08
4.75466e-08
4.88876e-08
5.02606e-08
5.16664e-08
5.31056e-08
5.45788e-08
5.60867e-08
5.763e-08
5.92093e-08
6.08253e-08
6.24787e-08
6.41703e-08
6.59006e-08
6.76705e-08
6.94806e-08
7.13317e-08
7.32245e-08
7.51598e-08
7.71383e-08
7.91609e-08
8.12281e-08
8.3341e-08
8.55001e-08
8.77064e-08
8.99605e-08
9.22634e-08
9.46158e-08
9.70186e-08
9.94725e-08
1.01978e-07
1.04537e-07
1.0715e-07
1.09817e-07
1.12539e-07
1.15318e-07
1.18153e-07
1.21047e-07
1.23999e-07
1.27011e-07
1.30084e-07
1.33218e-07
1.36414e-07
1.39674e-07
1.42998e-07
1.46386e-07
1.49841e-07
1.53362e-07
1.56951e-07
1.60609e-07
1.64336e-07
1.68133e-07
1.72002e-07
1.75942e-07
1.79956e-07
1.84043e-07
1.88205e-07
1.92443e-07
1.96757e-07
2.01148e-07
2.05618e-07
2.10167e-07
2.14796e-07
2.19505e-07
2.24296e-07
2.2917e-07
2.34127e-07
2.39167e-07
2.44293e-07
2.49504e-07
2.54802e-07
2.60187e-07
2.6566e-07
2.71222e-07
2.76873e-07
2.82615e-07
2.88447e-07
2.94371e-07
3.00387e-07
3.06496e-07
3.12699e-07
3.18995e-07
3.25387e-07
3.31874e-07
3.38457e-07
3.45137e-07
3.51913e-07
3.58787e-07
3.65759e-07
3.7283e-07
3.8e-07
3.87268e-07
3.94637e-07
4.02106e-07
4.09675e-07
4.17345e-07
4.25116e-07
4.32988e-07
4.40961e-07
4.49037e-07
4.57214e-07
4.65493e-07
4.73874e-07
4.82357e-07
4.90942e-07
4.9963e-07
5.08419e-07
5.1731e-07
5.26304e-07
5.35399e-07
5.44596e-07
5.53894e-07
5.63293e-07
5.72792e-07
5.82392e-07
5.92093e-07
6.01892e-07
6.11791e-07
6.21788e-07
6.31884e-07
6.42077e-07
6.52366e-07
6.62752e-07
6.73233e-07
6.83809e-07
6.94479e-07
7.05241e-07
7.16096e-07
7.27041e-07
7.38076e-07
7.49201e-07
7.60413e-07
7.71712e-07
7.83097e-07
7.94566e-07
8.06118e-07
8.17751e-07
8.29465e-07
8.41257e-07
8.53127e-07
8.65072e-07
8.77092e-07
8.89184e-07
9.01347e-07
9.13579e-07
9.25879e-07
9.38244e-07
9.50672e-07
9.63162e-07
9.75712e-07
9.8832e-07
1.00098e-06
1.0137e-06
1.02647e-06
1.03928e-06
1.05215e-06
1.06506e-06
1.07801e-06
1.091e-06
1.10402e-06
1.11708e-06
1.13018e-06
1.1433e-06
1.15645e-06
1.16963e-06
1.18283e-06
1.19604e-06
1.20927e-06
1.22252e-06
1.23578e-06
1.24904e-06
1.26231e-06
1.27558e-06
1.28885e-06
1.30212e-06
1.31537e-06
1.32862e-06
1.34186e-06
1.35507e-06
1.36827e-06
1.38145e-06
1.3946e-06
1.40772e-06
1.42081e-06
1.43386e-06
1.44687e-06
1.45984e-06
1.47277e-06
1.48565e-06
1.49847e-06
1.51124e-06
1.52395e-06
1.5366e-06
1.54918e-06
1.56169e-06
1.57413e-06
1.5865e-06
1.59879e-06
1.61099e-06
1.62311e-06
1.63514e-06
1.64708e-06
1.65892e-06
1.67066e-06
1.6823e-06
1.69384e-06
1.70527e-06
1.71658e-06
1.72779e-06
1.73887e-06
1.74983e-06
1.76067e-06
1.77139e-06
1.78197e-06
1.79242e-06
1.80274e-06
1.81292e-06
1.82295e-06
1.83285e-06
1.8426e-06
1.8522e-06
1.86165e-06
1.87094e-06
1.88009e-06
1.88907e-06
1.89789e-06
1.90656e-06
1.91506e-06
1.92339e-06
1.93156e-06
1.93956e-06
1.94739e-06
1.95505e-06
1.96253e-06
1.96984e-06
1.97698e-06
1.98394e-06
1.99073e-06
1.99733e-06
2.00376e-06
2.01001e-06
2.01608e-06
2.02197e-06
2.02768e-06
2.0332e-06
2.03855e-06
2.04371e-06
2.04868e-06
2.05347e-06
2.05807e-06
2.06248e-06
2.0667e-06
2.07072e-06
2.07454e-06
2.07817e-06
2.08158e-06
2.08478e-06
2.08775e-06
2.09049e-06
2.09299e-06
2.09524e-06
2.09722e-06
2.09891e-06
2.1003e-06
2.10137e-06
2.1021e-06
2.10247e-06
3.76908e-12
1.20827e-11
2.12595e-11
3.12862e-11
4.21615e-11
5.39105e-11
6.65654e-11
8.01631e-11
9.47463e-11
1.10362e-10
1.2706e-10
1.44895e-10
1.63921e-10
1.84195e-10
2.05776e-10
2.28723e-10
2.53098e-10
2.78963e-10
3.0638e-10
3.35412e-10
3.66126e-10
3.98586e-10
4.3286e-10
4.69016e-10
5.07124e-10
5.47253e-10
5.89476e-10
6.33867e-10
6.805e-10
7.29452e-10
7.808e-10
8.34624e-10
8.91006e-10
9.50027e-10
1.01177e-09
1.07633e-09
1.14379e-09
1.21423e-09
1.28776e-09
1.36446e-09
1.44443e-09
1.52777e-09
1.61458e-09
1.70496e-09
1.79902e-09
1.89686e-09
1.99858e-09
2.10432e-09
2.21416e-09
2.32824e-09
2.44668e-09
2.56958e-09
2.69708e-09
2.82931e-09
2.96639e-09
3.10846e-09
3.25565e-09
3.4081e-09
3.56596e-09
3.72936e-09
3.89846e-09
4.07341e-09
4.25436e-09
4.44147e-09
4.63491e-09
4.83483e-09
5.04142e-09
5.25483e-09
5.47526e-09
5.70287e-09
5.93787e-09
6.18043e-09
6.43074e-09
6.68902e-09
6.95545e-09
7.23025e-09
7.51363e-09
7.80581e-09
8.107e-09
8.41743e-09
8.73733e-09
9.06694e-09
9.4065e-09
9.75626e-09
1.01165e-08
1.04874e-08
1.08693e-08
1.12624e-08
1.1667e-08
1.20834e-08
1.25119e-08
1.29528e-08
1.34063e-08
1.38728e-08
1.43525e-08
1.48459e-08
1.53532e-08
1.58747e-08
1.64109e-08
1.69619e-08
1.75283e-08
1.81102e-08
1.87082e-08
1.93226e-08
1.99536e-08
2.06019e-08
2.12676e-08
2.19513e-08
2.26534e-08
2.33741e-08
2.41141e-08
2.48737e-08
2.56533e-08
2.64534e-08
2.72745e-08
2.81169e-08
2.89813e-08
2.9868e-08
3.07776e-08
3.17105e-08
3.26672e-08
3.36484e-08
3.46544e-08
3.56858e-08
3.67432e-08
3.7827e-08
3.8938e-08
4.00765e-08
4.12433e-08
4.24388e-08
4.36637e-08
4.49185e-08
4.6204e-08
4.75206e-08
4.8869e-08
5.02499e-08
5.16639e-08
5.31116e-08
5.45937e-08
5.61109e-08
5.76639e-08
5.92533e-08
6.08799e-08
6.25443e-08
6.42472e-08
6.59895e-08
6.77717e-08
6.95947e-08
7.14592e-08
7.33659e-08
7.53157e-08
7.73092e-08
7.93473e-08
8.14307e-08
8.35603e-08
8.57368e-08
8.79611e-08
9.02339e-08
9.25562e-08
9.49286e-08
9.73522e-08
9.98276e-08
1.02356e-07
1.04938e-07
1.07574e-07
1.10265e-07
1.13013e-07
1.15818e-07
1.18681e-07
1.21603e-07
1.24584e-07
1.27626e-07
1.3073e-07
1.33896e-07
1.37125e-07
1.40419e-07
1.43778e-07
1.47203e-07
1.50695e-07
1.54255e-07
1.57883e-07
1.61582e-07
1.65351e-07
1.69191e-07
1.73105e-07
1.77091e-07
1.81152e-07
1.85288e-07
1.89501e-07
1.9379e-07
1.98158e-07
2.02604e-07
2.0713e-07
2.11737e-07
2.16425e-07
2.21196e-07
2.2605e-07
2.30988e-07
2.36011e-07
2.4112e-07
2.46315e-07
2.51599e-07
2.5697e-07
2.62431e-07
2.67982e-07
2.73623e-07
2.79356e-07
2.85181e-07
2.911e-07
2.97112e-07
3.03218e-07
3.0942e-07
3.15718e-07
3.22112e-07
3.28603e-07
3.35192e-07
3.4188e-07
3.48666e-07
3.55552e-07
3.62539e-07
3.69625e-07
3.76813e-07
3.84103e-07
3.91495e-07
3.98989e-07
4.06586e-07
4.14287e-07
4.22091e-07
4.29999e-07
4.38011e-07
4.46127e-07
4.54349e-07
4.62675e-07
4.71107e-07
4.79643e-07
4.88285e-07
4.97033e-07
5.05885e-07
5.14844e-07
5.23907e-07
5.33076e-07
5.4235e-07
5.51729e-07
5.61213e-07
5.70801e-07
5.80494e-07
5.90291e-07
6.00191e-07
6.10195e-07
6.20302e-07
6.30511e-07
6.40821e-07
6.51233e-07
6.61746e-07
6.72358e-07
6.8307e-07
6.9388e-07
7.04788e-07
7.15793e-07
7.26894e-07
7.3809e-07
7.4938e-07
7.60763e-07
7.72238e-07
7.83803e-07
7.95459e-07
8.07202e-07
8.19033e-07
8.3095e-07
8.42951e-07
8.55034e-07
8.672e-07
8.79445e-07
8.91768e-07
9.04169e-07
9.16644e-07
9.29192e-07
9.41812e-07
9.54502e-07
9.67259e-07
9.80082e-07
9.92969e-07
1.00592e-06
1.01893e-06
1.03199e-06
1.04511e-06
1.05829e-06
1.07151e-06
1.08479e-06
1.09811e-06
1.11147e-06
1.12487e-06
1.13832e-06
1.1518e-06
1.16531e-06
1.17885e-06
1.19243e-06
1.20602e-06
1.21964e-06
1.23328e-06
1.24694e-06
1.26061e-06
1.27429e-06
1.28799e-06
1.30168e-06
1.31538e-06
1.32908e-06
1.34277e-06
1.35646e-06
1.37013e-06
1.38379e-06
1.39744e-06
1.41106e-06
1.42467e-06
1.43824e-06
1.45179e-06
1.4653e-06
1.47878e-06
1.49221e-06
1.5056e-06
1.51895e-06
1.53224e-06
1.54549e-06
1.55867e-06
1.5718e-06
1.58486e-06
1.59785e-06
1.61077e-06
1.62362e-06
1.63639e-06
1.64908e-06
1.66168e-06
1.6742e-06
1.68663e-06
1.69896e-06
1.71119e-06
1.72332e-06
1.73534e-06
1.74726e-06
1.75907e-06
1.77076e-06
1.78233e-06
1.79378e-06
1.80511e-06
1.81631e-06
1.82738e-06
1.83832e-06
1.84912e-06
1.85978e-06
1.87029e-06
1.88067e-06
1.89089e-06
1.90097e-06
1.91089e-06
1.92066e-06
1.93027e-06
1.93972e-06
1.94901e-06
1.95813e-06
1.96708e-06
1.97587e-06
1.98449e-06
1.99294e-06
2.00121e-06
2.0093e-06
2.01722e-06
2.02497e-06
2.03253e-06
2.03991e-06
2.04711e-06
2.05413e-06
2.06097e-06
2.06762e-06
2.07409e-06
2.08037e-06
2.08646e-06
2.09237e-06
2.09809e-06
2.10362e-06
2.10896e-06
2.11411e-06
2.11907e-06
2.12384e-06
2.12841e-06
2.13278e-06
2.13695e-06
2.14091e-06
2.14467e-06
2.14821e-06
2.15153e-06
2.15462e-06
2.15747e-06
2.16007e-06
2.16241e-06
2.16448e-06
2.16624e-06
2.1677e-06
2.16882e-06
2.1696e-06
2.16999e-06
3.69853e-12
1.18655e-11
2.08722e-11
3.07447e-11
4.14974e-11
5.3151e-11
6.57334e-11
7.92791e-11
9.38287e-11
1.09428e-10
1.26126e-10
1.43978e-10
1.63037e-10
1.83362e-10
2.05013e-10
2.28048e-10
2.52531e-10
2.78524e-10
3.06092e-10
3.35298e-10
3.6621e-10
3.98895e-10
4.33421e-10
4.69858e-10
5.08276e-10
5.4875e-10
5.91351e-10
6.36157e-10
6.83243e-10
7.32687e-10
7.84571e-10
8.38975e-10
8.95983e-10
9.5568e-10
1.01815e-09
1.08349e-09
1.15178e-09
1.22312e-09
1.29761e-09
1.37533e-09
1.45639e-09
1.54089e-09
1.62893e-09
1.72062e-09
1.81606e-09
1.91536e-09
2.01864e-09
2.12601e-09
2.23759e-09
2.35349e-09
2.47384e-09
2.59877e-09
2.7284e-09
2.86286e-09
3.00229e-09
3.14681e-09
3.29659e-09
3.45174e-09
3.61242e-09
3.77879e-09
3.95098e-09
4.12916e-09
4.31349e-09
4.50413e-09
4.70124e-09
4.905e-09
5.11558e-09
5.33315e-09
5.55791e-09
5.79003e-09
6.02971e-09
6.27713e-09
6.53251e-09
6.79604e-09
7.06793e-09
7.34839e-09
7.63765e-09
7.93591e-09
8.24341e-09
8.56039e-09
8.88707e-09
9.2237e-09
9.57053e-09
9.9278e-09
1.02958e-08
1.06747e-08
1.10649e-08
1.14667e-08
1.18802e-08
1.23058e-08
1.27437e-08
1.31944e-08
1.3658e-08
1.41349e-08
1.46255e-08
1.51299e-08
1.56487e-08
1.6182e-08
1.67303e-08
1.72939e-08
1.78732e-08
1.84685e-08
1.90802e-08
1.97087e-08
2.03544e-08
2.10176e-08
2.16988e-08
2.23983e-08
2.31167e-08
2.38543e-08
2.46116e-08
2.53889e-08
2.61868e-08
2.70058e-08
2.78462e-08
2.87085e-08
2.95933e-08
3.0501e-08
3.14321e-08
3.23872e-08
3.33667e-08
3.43712e-08
3.54012e-08
3.64573e-08
3.754e-08
3.86498e-08
3.97874e-08
4.09533e-08
4.21481e-08
4.33724e-08
4.46269e-08
4.5912e-08
4.72285e-08
4.8577e-08
4.99581e-08
5.13725e-08
5.28208e-08
5.43037e-08
5.58219e-08
5.7376e-08
5.89669e-08
6.05951e-08
6.22614e-08
6.39665e-08
6.57111e-08
6.7496e-08
6.9322e-08
7.11897e-08
7.31e-08
7.50536e-08
7.70514e-08
7.9094e-08
8.11824e-08
8.33172e-08
8.54994e-08
8.77297e-08
9.0009e-08
9.23381e-08
9.47179e-08
9.71492e-08
9.96329e-08
1.0217e-07
1.04761e-07
1.07407e-07
1.10109e-07
1.12867e-07
1.15684e-07
1.18558e-07
1.21493e-07
1.24488e-07
1.27544e-07
1.30662e-07
1.33843e-07
1.37089e-07
1.40399e-07
1.43775e-07
1.47219e-07
1.5073e-07
1.54309e-07
1.57959e-07
1.61679e-07
1.65471e-07
1.69335e-07
1.73272e-07
1.77285e-07
1.81372e-07
1.85536e-07
1.89777e-07
1.94096e-07
1.98494e-07
2.02972e-07
2.07531e-07
2.12172e-07
2.16896e-07
2.21704e-07
2.26596e-07
2.31573e-07
2.36637e-07
2.41789e-07
2.47028e-07
2.52357e-07
2.57775e-07
2.63284e-07
2.68884e-07
2.74577e-07
2.80364e-07
2.86244e-07
2.92219e-07
2.98289e-07
3.04456e-07
3.10719e-07
3.17081e-07
3.23541e-07
3.301e-07
3.36759e-07
3.43518e-07
3.50378e-07
3.5734e-07
3.64405e-07
3.71572e-07
3.78842e-07
3.86217e-07
3.93696e-07
4.0128e-07
4.08969e-07
4.16764e-07
4.24665e-07
4.32672e-07
4.40786e-07
4.49007e-07
4.57336e-07
4.65773e-07
4.74317e-07
4.82969e-07
4.91729e-07
5.00598e-07
5.09575e-07
5.1866e-07
5.27854e-07
5.37156e-07
5.46566e-07
5.56084e-07
5.6571e-07
5.75445e-07
5.85286e-07
5.95235e-07
6.05291e-07
6.15454e-07
6.25722e-07
6.36097e-07
6.46577e-07
6.57161e-07
6.6785e-07
6.78642e-07
6.89537e-07
7.00534e-07
7.11633e-07
7.22832e-07
7.34131e-07
7.45529e-07
7.57024e-07
7.68616e-07
7.80305e-07
7.92087e-07
8.03964e-07
8.15932e-07
8.27992e-07
8.40141e-07
8.52379e-07
8.64703e-07
8.77113e-07
8.89607e-07
9.02184e-07
9.14841e-07
9.27577e-07
9.4039e-07
9.5328e-07
9.66242e-07
9.79277e-07
9.92382e-07
1.00555e-06
1.01879e-06
1.03209e-06
1.04546e-06
1.05888e-06
1.07236e-06
1.0859e-06
1.09949e-06
1.11312e-06
1.12681e-06
1.14054e-06
1.15432e-06
1.16813e-06
1.18198e-06
1.19587e-06
1.20979e-06
1.22373e-06
1.23771e-06
1.25171e-06
1.26573e-06
1.27976e-06
1.29381e-06
1.30788e-06
1.32195e-06
1.33603e-06
1.35011e-06
1.36419e-06
1.37827e-06
1.39234e-06
1.4064e-06
1.42044e-06
1.43447e-06
1.44848e-06
1.46247e-06
1.47643e-06
1.49036e-06
1.50425e-06
1.51811e-06
1.53193e-06
1.5457e-06
1.55943e-06
1.57311e-06
1.58673e-06
1.60029e-06
1.61379e-06
1.62723e-06
1.64059e-06
1.65389e-06
1.66711e-06
1.68024e-06
1.6933e-06
1.70627e-06
1.71915e-06
1.73194e-06
1.74463e-06
1.75721e-06
1.7697e-06
1.78208e-06
1.79434e-06
1.8065e-06
1.81853e-06
1.83044e-06
1.84223e-06
1.8539e-06
1.86543e-06
1.87683e-06
1.88809e-06
1.89921e-06
1.91019e-06
1.92102e-06
1.93171e-06
1.94224e-06
1.95262e-06
1.96285e-06
1.97291e-06
1.98281e-06
1.99255e-06
2.00212e-06
2.01152e-06
2.02075e-06
2.02981e-06
2.0387e-06
2.0474e-06
2.05593e-06
2.06428e-06
2.07245e-06
2.08043e-06
2.08823e-06
2.09585e-06
2.10328e-06
2.11052e-06
2.11757e-06
2.12444e-06
2.13111e-06
2.1376e-06
2.14389e-06
2.14999e-06
2.1559e-06
2.16161e-06
2.16713e-06
2.17245e-06
2.17758e-06
2.18251e-06
2.18723e-06
2.19175e-06
2.19607e-06
2.20018e-06
2.20407e-06
2.20774e-06
2.21118e-06
2.21439e-06
2.21736e-06
2.22007e-06
2.22251e-06
2.22466e-06
2.22652e-06
2.22805e-06
2.22924e-06
2.23006e-06
2.23048e-06
3.62837e-12
1.1638e-11
2.04574e-11
3.01323e-11
4.06952e-11
5.2174e-11
6.45992e-11
7.80059e-11
9.24341e-11
1.07929e-10
1.2454e-10
1.42319e-10
1.61323e-10
1.81607e-10
2.03233e-10
2.26259e-10
2.50749e-10
2.76766e-10
3.04374e-10
3.3364e-10
3.6463e-10
3.97412e-10
4.32056e-10
4.68634e-10
5.07217e-10
5.47879e-10
5.90696e-10
6.35745e-10
6.83103e-10
7.32851e-10
7.8507e-10
8.39845e-10
8.97261e-10
9.57403e-10
1.02036e-09
1.08623e-09
1.15509e-09
1.22706e-09
1.30221e-09
1.38065e-09
1.46248e-09
1.54781e-09
1.63674e-09
1.72937e-09
1.82582e-09
1.9262e-09
2.03062e-09
2.13921e-09
2.25207e-09
2.36934e-09
2.49114e-09
2.61759e-09
2.74883e-09
2.88499e-09
3.0262e-09
3.17262e-09
3.32437e-09
3.4816e-09
3.64447e-09
3.81313e-09
3.98772e-09
4.16842e-09
4.35538e-09
4.54877e-09
4.74876e-09
4.95553e-09
5.16924e-09
5.39009e-09
5.61826e-09
5.85395e-09
6.09733e-09
6.34862e-09
6.60801e-09
6.87572e-09
7.15195e-09
7.43693e-09
7.73087e-09
8.034e-09
8.34655e-09
8.66877e-09
9.00088e-09
9.34314e-09
9.69581e-09
1.00591e-08
1.04334e-08
1.08188e-08
1.12157e-08
1.16244e-08
1.20451e-08
1.24781e-08
1.29237e-08
1.33823e-08
1.38541e-08
1.43395e-08
1.48388e-08
1.53523e-08
1.58803e-08
1.64233e-08
1.69815e-08
1.75553e-08
1.81451e-08
1.87513e-08
1.93742e-08
2.00142e-08
2.06718e-08
2.13472e-08
2.2041e-08
2.27536e-08
2.34853e-08
2.42367e-08
2.50081e-08
2.58e-08
2.6613e-08
2.74473e-08
2.83036e-08
2.91822e-08
3.00838e-08
3.10087e-08
3.19576e-08
3.29309e-08
3.39291e-08
3.49529e-08
3.60026e-08
3.7079e-08
3.81825e-08
3.93138e-08
4.04733e-08
4.16618e-08
4.28798e-08
4.41279e-08
4.54067e-08
4.67168e-08
4.8059e-08
4.94338e-08
5.0842e-08
5.2284e-08
5.37608e-08
5.52728e-08
5.68209e-08
5.84056e-08
6.00279e-08
6.16882e-08
6.33875e-08
6.51263e-08
6.69056e-08
6.87259e-08
7.05881e-08
7.2493e-08
7.44414e-08
7.6434e-08
7.84716e-08
8.05551e-08
8.26853e-08
8.48629e-08
8.70889e-08
8.9364e-08
9.16891e-08
9.40651e-08
9.64929e-08
9.89732e-08
1.01507e-07
1.04095e-07
1.06739e-07
1.09438e-07
1.12195e-07
1.1501e-07
1.17883e-07
1.20817e-07
1.23811e-07
1.26867e-07
1.29985e-07
1.33167e-07
1.36413e-07
1.39725e-07
1.43104e-07
1.46549e-07
1.50063e-07
1.53646e-07
1.573e-07
1.61025e-07
1.64821e-07
1.68691e-07
1.72636e-07
1.76655e-07
1.8075e-07
1.84922e-07
1.89172e-07
1.93501e-07
1.9791e-07
2.024e-07
2.06971e-07
2.11626e-07
2.16364e-07
2.21186e-07
2.26094e-07
2.31089e-07
2.36171e-07
2.41341e-07
2.46601e-07
2.51951e-07
2.57391e-07
2.62924e-07
2.68549e-07
2.74268e-07
2.80081e-07
2.8599e-07
2.91995e-07
2.98096e-07
3.04296e-07
3.10593e-07
3.1699e-07
3.23487e-07
3.30085e-07
3.36784e-07
3.43585e-07
3.50489e-07
3.57497e-07
3.64608e-07
3.71824e-07
3.79145e-07
3.86572e-07
3.94105e-07
4.01746e-07
4.09493e-07
4.17348e-07
4.25312e-07
4.33384e-07
4.41565e-07
4.49855e-07
4.58255e-07
4.66765e-07
4.75385e-07
4.84115e-07
4.92956e-07
5.01908e-07
5.1097e-07
5.20144e-07
5.29428e-07
5.38824e-07
5.4833e-07
5.57947e-07
5.67675e-07
5.77514e-07
5.87463e-07
5.97522e-07
6.07691e-07
6.17969e-07
6.28357e-07
6.38854e-07
6.49459e-07
6.60172e-07
6.70992e-07
6.8192e-07
6.92953e-07
7.04091e-07
7.15335e-07
7.26682e-07
7.38133e-07
7.49685e-07
7.61339e-07
7.73094e-07
7.84948e-07
7.969e-07
8.08949e-07
8.21094e-07
8.33334e-07
8.45667e-07
8.58092e-07
8.70609e-07
8.83214e-07
8.95907e-07
9.08686e-07
9.2155e-07
9.34497e-07
9.47526e-07
9.60633e-07
9.73819e-07
9.8708e-07
1.00042e-06
1.01382e-06
1.0273e-06
1.04084e-06
1.05446e-06
1.06813e-06
1.08186e-06
1.09566e-06
1.10951e-06
1.12341e-06
1.13737e-06
1.15138e-06
1.16543e-06
1.17953e-06
1.19367e-06
1.20785e-06
1.22206e-06
1.23631e-06
1.25058e-06
1.26489e-06
1.27922e-06
1.29357e-06
1.30794e-06
1.32233e-06
1.33673e-06
1.35114e-06
1.36556e-06
1.37997e-06
1.39439e-06
1.40881e-06
1.42322e-06
1.43762e-06
1.45201e-06
1.46638e-06
1.48073e-06
1.49505e-06
1.50935e-06
1.52362e-06
1.53786e-06
1.55205e-06
1.56621e-06
1.58032e-06
1.59439e-06
1.6084e-06
1.62236e-06
1.63626e-06
1.65009e-06
1.66386e-06
1.67756e-06
1.69119e-06
1.70474e-06
1.71821e-06
1.73159e-06
1.74489e-06
1.75809e-06
1.7712e-06
1.78422e-06
1.79712e-06
1.80993e-06
1.82262e-06
1.8352e-06
1.84767e-06
1.86001e-06
1.87223e-06
1.88433e-06
1.89629e-06
1.90813e-06
1.91982e-06
1.93138e-06
1.94279e-06
1.95406e-06
1.96518e-06
1.97615e-06
1.98696e-06
1.99762e-06
2.00812e-06
2.01845e-06
2.02862e-06
2.03862e-06
2.04845e-06
2.05811e-06
2.06759e-06
2.0769e-06
2.08602e-06
2.09497e-06
2.10374e-06
2.11232e-06
2.12071e-06
2.12892e-06
2.13694e-06
2.14478e-06
2.15242e-06
2.15987e-06
2.16712e-06
2.17419e-06
2.18105e-06
2.18773e-06
2.19421e-06
2.20049e-06
2.20657e-06
2.21245e-06
2.21814e-06
2.22363e-06
2.22891e-06
2.23399e-06
2.23887e-06
2.24353e-06
2.24799e-06
2.25223e-06
2.25625e-06
2.26005e-06
2.26362e-06
2.26694e-06
2.27002e-06
2.27284e-06
2.27538e-06
2.27763e-06
2.27958e-06
2.28119e-06
2.28244e-06
2.28331e-06
2.28377e-06
3.56212e-12
1.14221e-11
2.00645e-11
2.95397e-11
3.98925e-11
5.11615e-11
6.3384e-11
7.65994e-11
9.08502e-11
1.06183e-10
1.22646e-10
1.40293e-10
1.59179e-10
1.79361e-10
2.00897e-10
2.23848e-10
2.48276e-10
2.74244e-10
3.01818e-10
3.31063e-10
3.62046e-10
3.94837e-10
4.29507e-10
4.66125e-10
5.04767e-10
5.45507e-10
5.88421e-10
6.33587e-10
6.81085e-10
7.30996e-10
7.83404e-10
8.38394e-10
8.96052e-10
9.56467e-10
1.01973e-09
1.08593e-09
1.15517e-09
1.22754e-09
1.30313e-09
1.38206e-09
1.46442e-09
1.55032e-09
1.63986e-09
1.73315e-09
1.83032e-09
1.93146e-09
2.0367e-09
2.14616e-09
2.25996e-09
2.37823e-09
2.50108e-09
2.62865e-09
2.76108e-09
2.8985e-09
3.04105e-09
3.18887e-09
3.34211e-09
3.50091e-09
3.66543e-09
3.83582e-09
4.01225e-09
4.19486e-09
4.38383e-09
4.57933e-09
4.78153e-09
4.99061e-09
5.20675e-09
5.43013e-09
5.66094e-09
5.89938e-09
6.14564e-09
6.39993e-09
6.66246e-09
6.93342e-09
7.21305e-09
7.50156e-09
7.79917e-09
8.10612e-09
8.42264e-09
8.74898e-09
9.08537e-09
9.43208e-09
9.78935e-09
1.01574e-08
1.05366e-08
1.09272e-08
1.13294e-08
1.17436e-08
1.217e-08
1.26089e-08
1.30606e-08
1.35255e-08
1.40039e-08
1.4496e-08
1.50022e-08
1.55229e-08
1.60584e-08
1.6609e-08
1.71752e-08
1.77572e-08
1.83554e-08
1.89703e-08
1.96022e-08
2.02514e-08
2.09185e-08
2.16038e-08
2.23078e-08
2.30308e-08
2.37733e-08
2.45357e-08
2.53185e-08
2.61222e-08
2.69472e-08
2.7794e-08
2.8663e-08
2.95548e-08
3.04699e-08
3.14088e-08
3.2372e-08
3.336e-08
3.43734e-08
3.54127e-08
3.64785e-08
3.75713e-08
3.86917e-08
3.98402e-08
4.10176e-08
4.22244e-08
4.34611e-08
4.47285e-08
4.60271e-08
4.73576e-08
4.87206e-08
5.01168e-08
5.15469e-08
5.30115e-08
5.45113e-08
5.60471e-08
5.76194e-08
5.92291e-08
6.08769e-08
6.25635e-08
6.42896e-08
6.60559e-08
6.78634e-08
6.97126e-08
7.16045e-08
7.35397e-08
7.55191e-08
7.75436e-08
7.96138e-08
8.17307e-08
8.3895e-08
8.61076e-08
8.83694e-08
9.06812e-08
9.30438e-08
9.54582e-08
9.79253e-08
1.00446e-07
1.03021e-07
1.05651e-07
1.08338e-07
1.11081e-07
1.13883e-07
1.16744e-07
1.19664e-07
1.22646e-07
1.25689e-07
1.28795e-07
1.31964e-07
1.35199e-07
1.38499e-07
1.41865e-07
1.453e-07
1.48802e-07
1.52375e-07
1.56017e-07
1.59732e-07
1.63518e-07
1.67378e-07
1.71313e-07
1.75323e-07
1.79409e-07
1.83573e-07
1.87815e-07
1.92137e-07
1.96539e-07
2.01022e-07
2.05588e-07
2.10236e-07
2.1497e-07
2.19788e-07
2.24692e-07
2.29684e-07
2.34763e-07
2.39932e-07
2.4519e-07
2.5054e-07
2.55981e-07
2.61515e-07
2.67142e-07
2.72864e-07
2.78681e-07
2.84595e-07
2.90605e-07
2.96713e-07
3.02921e-07
3.09227e-07
3.15634e-07
3.22142e-07
3.28752e-07
3.35465e-07
3.4228e-07
3.492e-07
3.56225e-07
3.63355e-07
3.70591e-07
3.77933e-07
3.85383e-07
3.92941e-07
4.00607e-07
4.08382e-07
4.16266e-07
4.2426e-07
4.32365e-07
4.4058e-07
4.48907e-07
4.57344e-07
4.65894e-07
4.74556e-07
4.8333e-07
4.92217e-07
5.01216e-07
5.10328e-07
5.19554e-07
5.28892e-07
5.38344e-07
5.47909e-07
5.57587e-07
5.67379e-07
5.77283e-07
5.873e-07
5.9743e-07
6.07673e-07
6.18027e-07
6.28494e-07
6.39072e-07
6.49761e-07
6.6056e-07
6.7147e-07
6.8249e-07
6.93618e-07
7.04855e-07
7.162e-07
7.27652e-07
7.3921e-07
7.50873e-07
7.6264e-07
7.74512e-07
7.86486e-07
7.98561e-07
8.10737e-07
8.23012e-07
8.35385e-07
8.47855e-07
8.60421e-07
8.73081e-07
8.85834e-07
8.98678e-07
9.11612e-07
9.24634e-07
9.37743e-07
9.50937e-07
9.64214e-07
9.77572e-07
9.9101e-07
1.00453e-06
1.01812e-06
1.03178e-06
1.04552e-06
1.05933e-06
1.0732e-06
1.08714e-06
1.10114e-06
1.11521e-06
1.12933e-06
1.1435e-06
1.15773e-06
1.17201e-06
1.18634e-06
1.20072e-06
1.21514e-06
1.22959e-06
1.24409e-06
1.25862e-06
1.27318e-06
1.28777e-06
1.30239e-06
1.31703e-06
1.33168e-06
1.34636e-06
1.36105e-06
1.37575e-06
1.39046e-06
1.40517e-06
1.41988e-06
1.43459e-06
1.44929e-06
1.46398e-06
1.47866e-06
1.49333e-06
1.50797e-06
1.52259e-06
1.53719e-06
1.55175e-06
1.56628e-06
1.58077e-06
1.59522e-06
1.60963e-06
1.62399e-06
1.6383e-06
1.65255e-06
1.66674e-06
1.68087e-06
1.69493e-06
1.70892e-06
1.72283e-06
1.73667e-06
1.75043e-06
1.7641e-06
1.77768e-06
1.79117e-06
1.80457e-06
1.81786e-06
1.83105e-06
1.84413e-06
1.8571e-06
1.86996e-06
1.8827e-06
1.89532e-06
1.90781e-06
1.92017e-06
1.9324e-06
1.9445e-06
1.95646e-06
1.96828e-06
1.97995e-06
1.99147e-06
2.00285e-06
2.01406e-06
2.02512e-06
2.03603e-06
2.04677e-06
2.05734e-06
2.06774e-06
2.07798e-06
2.08804e-06
2.09793e-06
2.10763e-06
2.11716e-06
2.12651e-06
2.13567e-06
2.14465e-06
2.15344e-06
2.16204e-06
2.17045e-06
2.17866e-06
2.18669e-06
2.19452e-06
2.20216e-06
2.2096e-06
2.21684e-06
2.22388e-06
2.23073e-06
2.23737e-06
2.24382e-06
2.25006e-06
2.2561e-06
2.26194e-06
2.26757e-06
2.273e-06
2.27822e-06
2.28324e-06
2.28804e-06
2.29262e-06
2.29699e-06
2.30113e-06
2.30505e-06
2.30873e-06
2.31217e-06
2.31535e-06
2.31827e-06
2.32091e-06
2.32326e-06
2.32529e-06
2.32697e-06
2.3283e-06
2.32922e-06
2.3297e-06
3.50349e-12
1.12303e-11
1.97156e-11
2.90087e-11
3.91608e-11
5.0219e-11
6.22287e-11
7.52355e-11
8.92862e-11
1.0443e-10
1.20717e-10
1.38201e-10
1.56936e-10
1.76981e-10
1.98391e-10
2.21229e-10
2.45556e-10
2.71434e-10
2.98928e-10
3.28104e-10
3.5903e-10
3.91775e-10
4.26409e-10
4.63005e-10
5.01637e-10
5.42381e-10
5.85313e-10
6.30513e-10
6.78061e-10
7.2804e-10
7.80533e-10
8.35628e-10
8.93413e-10
9.53976e-10
1.01741e-09
1.08381e-09
1.15327e-09
1.22588e-09
1.30176e-09
1.381e-09
1.4637e-09
1.54997e-09
1.63992e-09
1.73366e-09
1.83131e-09
1.93298e-09
2.03879e-09
2.14886e-09
2.26331e-09
2.38228e-09
2.50588e-09
2.63426e-09
2.76755e-09
2.90588e-09
3.04939e-09
3.19824e-09
3.35257e-09
3.51252e-09
3.67825e-09
3.84993e-09
4.0277e-09
4.21174e-09
4.40221e-09
4.59929e-09
4.80314e-09
5.01396e-09
5.23192e-09
5.45721e-09
5.69002e-09
5.93055e-09
6.179e-09
6.43557e-09
6.70047e-09
6.97393e-09
7.25614e-09
7.54735e-09
7.84778e-09
8.15766e-09
8.47723e-09
8.80673e-09
9.14642e-09
9.49654e-09
9.85737e-09
1.02292e-08
1.06122e-08
1.10067e-08
1.14131e-08
1.18315e-08
1.22623e-08
1.27058e-08
1.31623e-08
1.36321e-08
1.41155e-08
1.46129e-08
1.51245e-08
1.56508e-08
1.61921e-08
1.67487e-08
1.73211e-08
1.79095e-08
1.85143e-08
1.9136e-08
1.97749e-08
2.04314e-08
2.1106e-08
2.1799e-08
2.25109e-08
2.32421e-08
2.3993e-08
2.47642e-08
2.5556e-08
2.63689e-08
2.72034e-08
2.80599e-08
2.89391e-08
2.98413e-08
3.07671e-08
3.17169e-08
3.26914e-08
3.36911e-08
3.47164e-08
3.5768e-08
3.68464e-08
3.79522e-08
3.90859e-08
4.02482e-08
4.14397e-08
4.26609e-08
4.39126e-08
4.51952e-08
4.65095e-08
4.78561e-08
4.92357e-08
5.06489e-08
5.20964e-08
5.35789e-08
5.5097e-08
5.66516e-08
5.82433e-08
5.98728e-08
6.15409e-08
6.32483e-08
6.49958e-08
6.67841e-08
6.8614e-08
7.04863e-08
7.24017e-08
7.43611e-08
7.63653e-08
7.84152e-08
8.05114e-08
8.26549e-08
8.48465e-08
8.70871e-08
8.93775e-08
9.17185e-08
9.41112e-08
9.65563e-08
9.90547e-08
1.01607e-07
1.04215e-07
1.06879e-07
1.096e-07
1.12379e-07
1.15217e-07
1.18114e-07
1.21073e-07
1.24093e-07
1.27175e-07
1.30321e-07
1.33532e-07
1.36809e-07
1.40152e-07
1.43562e-07
1.47041e-07
1.5059e-07
1.54209e-07
1.579e-07
1.61663e-07
1.65499e-07
1.69411e-07
1.73397e-07
1.7746e-07
1.81601e-07
1.8582e-07
1.90119e-07
1.94498e-07
1.98959e-07
2.03502e-07
2.08128e-07
2.1284e-07
2.17636e-07
2.22519e-07
2.2749e-07
2.32549e-07
2.37697e-07
2.42935e-07
2.48265e-07
2.53687e-07
2.59203e-07
2.64812e-07
2.70516e-07
2.76316e-07
2.82213e-07
2.88208e-07
2.94301e-07
3.00493e-07
3.06786e-07
3.1318e-07
3.19675e-07
3.26273e-07
3.32975e-07
3.39781e-07
3.46691e-07
3.53708e-07
3.60831e-07
3.6806e-07
3.75398e-07
3.82843e-07
3.90398e-07
3.98062e-07
4.05836e-07
4.13721e-07
4.21717e-07
4.29825e-07
4.38044e-07
4.46377e-07
4.54822e-07
4.6338e-07
4.72052e-07
4.80838e-07
4.89738e-07
4.98752e-07
5.07881e-07
5.17125e-07
5.26484e-07
5.35958e-07
5.45546e-07
5.5525e-07
5.65069e-07
5.75004e-07
5.85053e-07
5.95216e-07
6.05495e-07
6.15887e-07
6.26394e-07
6.37015e-07
6.47749e-07
6.58596e-07
6.69556e-07
6.80628e-07
6.91811e-07
7.03105e-07
7.1451e-07
7.26024e-07
7.37647e-07
7.49379e-07
7.61217e-07
7.73162e-07
7.85213e-07
7.97368e-07
8.09626e-07
8.21986e-07
8.34448e-07
8.4701e-07
8.5967e-07
8.72428e-07
8.85282e-07
8.98231e-07
9.11272e-07
9.24405e-07
9.37629e-07
9.5094e-07
9.64339e-07
9.77822e-07
9.91388e-07
1.00504e-06
1.01876e-06
1.03257e-06
1.04645e-06
1.0604e-06
1.07442e-06
1.08852e-06
1.10268e-06
1.1169e-06
1.13119e-06
1.14553e-06
1.15994e-06
1.17439e-06
1.1889e-06
1.20346e-06
1.21807e-06
1.23272e-06
1.24741e-06
1.26214e-06
1.27691e-06
1.2917e-06
1.30653e-06
1.32139e-06
1.33627e-06
1.35116e-06
1.36608e-06
1.38101e-06
1.39596e-06
1.41091e-06
1.42586e-06
1.44082e-06
1.45577e-06
1.47072e-06
1.48566e-06
1.50059e-06
1.5155e-06
1.53039e-06
1.54526e-06
1.5601e-06
1.57491e-06
1.58969e-06
1.60443e-06
1.61913e-06
1.63379e-06
1.64839e-06
1.66295e-06
1.67744e-06
1.69188e-06
1.70626e-06
1.72056e-06
1.7348e-06
1.74896e-06
1.76304e-06
1.77705e-06
1.79096e-06
1.80478e-06
1.81852e-06
1.83215e-06
1.84568e-06
1.85911e-06
1.87243e-06
1.88564e-06
1.89873e-06
1.9117e-06
1.92455e-06
1.93727e-06
1.94987e-06
1.96232e-06
1.97465e-06
1.98683e-06
1.99887e-06
2.01076e-06
2.0225e-06
2.03409e-06
2.04552e-06
2.0568e-06
2.06791e-06
2.07886e-06
2.08964e-06
2.10024e-06
2.11068e-06
2.12094e-06
2.13102e-06
2.14092e-06
2.15064e-06
2.16018e-06
2.16952e-06
2.17868e-06
2.18765e-06
2.19643e-06
2.20501e-06
2.2134e-06
2.2216e-06
2.22959e-06
2.23739e-06
2.24499e-06
2.25239e-06
2.25958e-06
2.26658e-06
2.27337e-06
2.27996e-06
2.28634e-06
2.29252e-06
2.29849e-06
2.30425e-06
2.30981e-06
2.31516e-06
2.32029e-06
2.32521e-06
2.32991e-06
2.33439e-06
2.33864e-06
2.34266e-06
2.34644e-06
2.34998e-06
2.35326e-06
2.35627e-06
2.359e-06
2.36143e-06
2.36354e-06
2.3653e-06
2.36668e-06
2.36765e-06
2.36817e-06
3.45436e-12
1.10695e-11
1.94234e-11
2.85627e-11
3.85407e-11
4.94105e-11
6.12243e-11
7.40339e-11
8.78911e-11
1.02848e-10
1.18958e-10
1.36275e-10
1.54855e-10
1.74754e-10
1.96031e-10
2.18744e-10
2.42955e-10
2.68726e-10
2.96123e-10
3.25209e-10
3.56054e-10
3.88726e-10
4.23296e-10
4.59837e-10
4.98422e-10
5.39129e-10
5.82034e-10
6.27218e-10
6.74762e-10
7.24749e-10
7.77265e-10
8.32395e-10
8.9023e-10
9.50859e-10
1.01438e-09
1.08088e-09
1.15046e-09
1.22321e-09
1.29925e-09
1.37867e-09
1.46158e-09
1.54809e-09
1.6383e-09
1.73233e-09
1.83029e-09
1.93231e-09
2.03849e-09
2.14897e-09
2.26387e-09
2.38331e-09
2.50743e-09
2.63636e-09
2.77024e-09
2.90921e-09
3.0534e-09
3.20297e-09
3.35807e-09
3.51884e-09
3.68544e-09
3.85803e-09
4.03677e-09
4.22184e-09
4.41339e-09
4.61161e-09
4.81667e-09
5.02874e-09
5.24803e-09