/*--------------------------------*- C++ -*----------------------------------*\
  =========                 |
  \\      /  F ield         | OpenFOAM: The Open Source CFD Toolbox
   \\    /   O peration     | Website:  https://openfoam.org
    \\  /    A nd           | Version:  dev
     \\/     M anipulation  |
\*---------------------------------------------------------------------------*/
FoamFile
{
    format      ascii;
    class       volScalarField;
    location    "0.46";
    object      cov;
}
// * * * * * * * * * * * * * * * * * * * * * * * * * * * * * * * * * * * * * //

dimensions      [0 0 0 0 0 0 0];

internalField   uniform 0;

boundaryField
{
    frontAndBack
    {
        type            empty;
    }
    inlet
    {
        type            calculated;
        value           uniform 0;
    }
    outlet
    {
        type            calculated;
        value           uniform 0;
    }
    substrate
    {
        type            calculated;
        value           nonuniform List<scalar> 
400
(
0.723392
0.709436
0.699197
0.689838
0.680945
0.672481
0.664346
0.656453
0.648737
0.641155
0.633672
0.626261
0.618904
0.611584
0.604291
0.597014
0.589749
0.582492
0.575238
0.567987
0.560739
0.553493
0.54625
0.539012
0.53178
0.524556
0.517342
0.510141
0.502955
0.495786
0.488637
0.481511
0.474409
0.467335
0.46029
0.453278
0.4463
0.43936
0.432458
0.425598
0.418782
0.412011
0.405288
0.398614
0.391991
0.385422
0.378907
0.372449
0.366049
0.359708
0.353428
0.34721
0.341056
0.334966
0.328941
0.322983
0.317092
0.31127
0.305516
0.299833
0.294219
0.288677
0.283206
0.277807
0.27248
0.267225
0.262043
0.256935
0.251899
0.246936
0.242046
0.237229
0.232486
0.227815
0.223216
0.218691
0.214237
0.209855
0.205545
0.201305
0.197137
0.193038
0.189009
0.18505
0.181159
0.177337
0.173581
0.169893
0.166271
0.162715
0.159223
0.155796
0.152433
0.149132
0.145893
0.142716
0.139599
0.136542
0.133544
0.130604
0.127722
0.124896
0.122127
0.119412
0.116751
0.114144
0.11159
0.109088
0.106636
0.104235
0.101883
0.0995797
0.0973243
0.0951158
0.0929536
0.0908368
0.0887646
0.0867364
0.0847512
0.0828083
0.0809071
0.0790466
0.0772262
0.0754452
0.0737028
0.0719982
0.0703308
0.0686999
0.0671048
0.0655448
0.0640191
0.0625272
0.0610683
0.0596419
0.0582472
0.0568837
0.0555507
0.0542475
0.0529737
0.0517285
0.0505115
0.0493219
0.0481593
0.0470231
0.0459128
0.0448277
0.0437674
0.0427314
0.041719
0.0407299
0.0397635
0.0388194
0.037897
0.0369959
0.0361156
0.0352557
0.0344157
0.0335952
0.0327938
0.0320111
0.0312465
0.0304998
0.0297705
0.0290583
0.0283627
0.0276835
0.0270201
0.0263724
0.0257398
0.0251222
0.0245191
0.0239302
0.0233551
0.0227937
0.0222455
0.0217103
0.0211878
0.0206776
0.0201796
0.0196933
0.0192186
0.0187552
0.0183028
0.0178612
0.01743
0.0170092
0.0165984
0.0161973
0.0158059
0.0154238
0.0150508
0.0146868
0.0143314
0.0139846
0.0136461
0.0133157
0.0129932
0.0126784
0.0123712
0.0120714
0.0117787
0.0114931
0.0112144
0.0109424
0.0106769
0.0104178
0.0101649
0.00991816
0.00967734
0.00944232
0.00921297
0.00898915
0.00877073
0.00855759
0.00834959
0.00814661
0.00794854
0.00775526
0.00756665
0.00738259
0.00720299
0.00702774
0.00685672
0.00668985
0.00652701
0.00636812
0.00621308
0.00606179
0.00591417
0.00577013
0.00562958
0.00549244
0.00535862
0.00522806
0.00510065
0.00497634
0.00485505
0.0047367
0.00462123
0.00450856
0.00439863
0.00429136
0.00418671
0.00408459
0.00398496
0.00388775
0.0037929
0.00370036
0.00361007
0.00352197
0.00343602
0.00335216
0.00327034
0.00319051
0.00311262
0.00303662
0.00296248
0.00289014
0.00281956
0.00275071
0.00268352
0.00261798
0.00255403
0.00249163
0.00243076
0.00237137
0.00231343
0.00225689
0.00220174
0.00214793
0.00209543
0.00204421
0.00199424
0.00194549
0.00189792
0.00185152
0.00180624
0.00176207
0.00171898
0.00167693
0.00163592
0.0015959
0.00155686
0.00151877
0.00148161
0.00144535
0.00140998
0.00137547
0.00134181
0.00130896
0.00127692
0.00124566
0.00121516
0.00118541
0.00115638
0.00112806
0.00110043
0.00107347
0.00104717
0.00102152
0.000996488
0.000972068
0.000948245
0.000925003
0.000902329
0.000880208
0.000858627
0.000837572
0.000817032
0.000796992
0.000777442
0.000758369
0.000739762
0.000721609
0.000703899
0.000686622
0.000669766
0.000653322
0.000637279
0.000621628
0.000606359
0.000591463
0.000576931
0.000562754
0.000548923
0.000535429
0.000522265
0.000509423
0.000496894
0.000484671
0.000472747
0.000461114
0.000449766
0.000438694
0.000427893
0.000417356
0.000407076
0.000397048
0.000387265
0.000377721
0.00036841
0.000359327
0.000350466
0.000341822
0.000333389
0.000325163
0.000317138
0.000309309
0.000301673
0.000294223
0.000286956
0.000279867
0.000272953
0.000266208
0.000259629
0.000253212
0.000246953
0.000240849
0.000234895
0.000229089
0.000223427
0.000217905
0.000212521
0.000207272
0.000202154
0.000197166
0.000192304
0.000187566
0.000182949
0.000178451
0.000174071
0.000169806
0.000165655
0.000161615
0.000157687
0.000153868
0.000150158
0.000146556
0.000143062
0.000139676
0.000136399
0.000133231
0.000130173
0.000127227
0.000124396
0.000121682
0.000119089
0.000116621
0.000114283
0.000112082
0.000110025
0.000108119
0.000106374
0.000104801
0.000103411
0.000102217
0.000101234
0.000100476
9.99575e-05
9.96929e-05
)
;
    }
    Wall
    {
        type            calculated;
        value           nonuniform List<scalar> 
400
(
0.723392
0.709436
0.699198
0.689839
0.680945
0.67248
0.664345
0.656451
0.648735
0.641153
0.633669
0.626259
0.618901
0.611582
0.604288
0.597012
0.589747
0.58249
0.575236
0.567986
0.560737
0.553491
0.546249
0.539011
0.531779
0.524555
0.517341
0.510141
0.502955
0.495786
0.488637
0.481511
0.474409
0.467335
0.460291
0.453279
0.446301
0.439361
0.432459
0.425599
0.418783
0.412012
0.405289
0.398615
0.391993
0.385423
0.378909
0.372451
0.366051
0.35971
0.35343
0.347212
0.341058
0.334967
0.328943
0.322985
0.317094
0.311272
0.305518
0.299835
0.294221
0.288679
0.283208
0.277809
0.272482
0.267227
0.262046
0.256937
0.251901
0.246938
0.242048
0.237231
0.232488
0.227817
0.223219
0.218693
0.214239
0.209857
0.205547
0.201307
0.197139
0.19304
0.189011
0.185052
0.181161
0.177338
0.173583
0.169895
0.166273
0.162717
0.159225
0.155798
0.152434
0.149133
0.145895
0.142717
0.1396
0.136543
0.133545
0.130606
0.127723
0.124898
0.122128
0.119413
0.116753
0.114146
0.111591
0.109089
0.106637
0.104236
0.101884
0.0995808
0.0973254
0.0951169
0.0929546
0.0908378
0.0887657
0.0867374
0.0847522
0.0828093
0.080908
0.0790475
0.0772271
0.0754461
0.0737036
0.0719991
0.0703317
0.0687008
0.0671056
0.0655455
0.0640199
0.0625279
0.0610691
0.0596426
0.0582479
0.0568844
0.0555513
0.0542482
0.0529743
0.0517292
0.0505121
0.0493225
0.0481599
0.0470237
0.0459134
0.0448283
0.043768
0.0427319
0.0417196
0.0407305
0.0397641
0.0388199
0.0378975
0.0369964
0.0361161
0.0352562
0.0344162
0.0335957
0.0327943
0.0320115
0.0312469
0.0305002
0.0297709
0.0290587
0.0283631
0.0276838
0.0270205
0.0263727
0.0257402
0.0251225
0.0245194
0.0239305
0.0233555
0.022794
0.0222458
0.0217106
0.0211881
0.0206779
0.0201799
0.0196936
0.0192189
0.0187555
0.0183031
0.0178614
0.0174303
0.0170094
0.0165986
0.0161976
0.0158061
0.015424
0.015051
0.014687
0.0143316
0.0139848
0.0136463
0.0133159
0.0129934
0.0126786
0.0123714
0.0120715
0.0117789
0.0114933
0.0112146
0.0109425
0.010677
0.0104179
0.0101651
0.00991831
0.00967748
0.00944246
0.00921311
0.00898929
0.00877087
0.00855772
0.00834972
0.00814674
0.00794867
0.00775538
0.00756677
0.00738271
0.00720311
0.00702785
0.00685683
0.00668996
0.00652712
0.00636823
0.00621318
0.00606189
0.00591427
0.00577023
0.00562968
0.00549253
0.00535871
0.00522814
0.00510074
0.00497643
0.00485513
0.00473678
0.00462131
0.00450864
0.0043987
0.00429144
0.00418678
0.00408466
0.00398503
0.00388782
0.00379297
0.00370042
0.00361013
0.00352203
0.00343608
0.00335222
0.00327039
0.00319056
0.00311267
0.00303668
0.00296253
0.00289019
0.00281962
0.00275076
0.00268357
0.00261802
0.00255407
0.00249168
0.00243081
0.00237141
0.00231347
0.00225694
0.00220178
0.00214797
0.00209547
0.00204425
0.00199428
0.00194552
0.00189796
0.00185155
0.00180628
0.0017621
0.00171901
0.00167697
0.00163595
0.00159593
0.00155689
0.0015188
0.00148163
0.00144538
0.00141001
0.0013755
0.00134183
0.00130899
0.00127695
0.00124568
0.00121518
0.00118543
0.0011564
0.00112808
0.00110045
0.00107349
0.00104719
0.00102154
0.000996506
0.000972087
0.000948263
0.000925021
0.000902346
0.000880224
0.000858643
0.000837588
0.000817047
0.000797007
0.000777457
0.000758384
0.000739776
0.000721623
0.000703913
0.000686635
0.000669779
0.000653334
0.000637291
0.00062164
0.000606371
0.000591475
0.000576942
0.000562764
0.000548933
0.000535439
0.000522275
0.000509432
0.000496903
0.00048468
0.000472756
0.000461123
0.000449774
0.000438702
0.000427901
0.000417364
0.000407084
0.000397056
0.000387272
0.000377728
0.000368417
0.000359334
0.000350472
0.000341828
0.000333395
0.000325169
0.000317144
0.000309315
0.000301678
0.000294228
0.000286961
0.000279872
0.000272958
0.000266213
0.000259634
0.000253217
0.000246958
0.000240853
0.000234899
0.000229093
0.00022343
0.000217909
0.000212525
0.000207275
0.000202158
0.000197169
0.000192307
0.000187569
0.000182952
0.000178454
0.000174074
0.000169809
0.000165657
0.000161618
0.000157689
0.00015387
0.00015016
0.000146558
0.000143065
0.000139679
0.000136401
0.000133233
0.000130175
0.000127229
0.000124398
0.000121684
0.000119091
0.000116623
0.000114285
0.000112084
0.000110027
0.000108121
0.000106376
0.000104803
0.000103413
0.000102219
0.000101236
0.000100478
9.99592e-05
9.96946e-05
)
;
    }
}


// ************************************************************************* //
