/*--------------------------------*- C++ -*----------------------------------*\
  =========                 |
  \\      /  F ield         | OpenFOAM: The Open Source CFD Toolbox
   \\    /   O peration     | Website:  https://openfoam.org
    \\  /    A nd           | Version:  dev
     \\/     M anipulation  |
\*---------------------------------------------------------------------------*/
FoamFile
{
    format      ascii;
    class       volScalarField;
    location    "0.46";
    object      Exp1;
}
// * * * * * * * * * * * * * * * * * * * * * * * * * * * * * * * * * * * * * //

dimensions      [0 0 0 0 0 0 0];

internalField   uniform 0;

boundaryField
{
    frontAndBack
    {
        type            empty;
    }
    inlet
    {
        type            calculated;
        value           uniform 0;
    }
    outlet
    {
        type            calculated;
        value           uniform 0;
    }
    substrate
    {
        type            calculated;
        value           nonuniform List<scalar> 
400
(
4.39845e-12
1.40091e-11
2.45818e-11
3.60717e-11
4.84859e-11
6.1867e-11
7.62563e-11
9.16973e-11
1.08238e-10
1.25933e-10
1.44836e-10
1.65007e-10
1.86506e-10
2.09398e-10
2.33744e-10
2.59611e-10
2.87066e-10
3.16175e-10
3.47007e-10
3.7963e-10
4.14116e-10
4.50536e-10
4.88961e-10
5.29465e-10
5.72123e-10
6.1701e-10
6.64204e-10
7.13783e-10
7.65826e-10
8.20416e-10
8.77634e-10
9.37566e-10
1.0003e-09
1.06592e-09
1.13451e-09
1.20617e-09
1.281e-09
1.35907e-09
1.4405e-09
1.52538e-09
1.61381e-09
1.70589e-09
1.80173e-09
1.90144e-09
2.00511e-09
2.11287e-09
2.22482e-09
2.34109e-09
2.46178e-09
2.58702e-09
2.71694e-09
2.85165e-09
2.99128e-09
3.13597e-09
3.28584e-09
3.44103e-09
3.60169e-09
3.76794e-09
3.93994e-09
4.11783e-09
4.30177e-09
4.4919e-09
4.68837e-09
4.89136e-09
5.10102e-09
5.31752e-09
5.54102e-09
5.77171e-09
6.00974e-09
6.25532e-09
6.50861e-09
6.76981e-09
7.03911e-09
7.31669e-09
7.60276e-09
7.89753e-09
8.20119e-09
8.51396e-09
8.83605e-09
9.16767e-09
9.50907e-09
9.86044e-09
1.0222e-08
1.05941e-08
1.09768e-08
1.13705e-08
1.17754e-08
1.21917e-08
1.26197e-08
1.30597e-08
1.35119e-08
1.39766e-08
1.44541e-08
1.49447e-08
1.54486e-08
1.59661e-08
1.64975e-08
1.70432e-08
1.76035e-08
1.81785e-08
1.87688e-08
1.93745e-08
1.9996e-08
2.06337e-08
2.12879e-08
2.19588e-08
2.2647e-08
2.33526e-08
2.40762e-08
2.48179e-08
2.55783e-08
2.63576e-08
2.71563e-08
2.79747e-08
2.88132e-08
2.96722e-08
3.05521e-08
3.14533e-08
3.23762e-08
3.33213e-08
3.42888e-08
3.52793e-08
3.62932e-08
3.73309e-08
3.83928e-08
3.94794e-08
4.05911e-08
4.17283e-08
4.28916e-08
4.40813e-08
4.52979e-08
4.65419e-08
4.78138e-08
4.9114e-08
5.04429e-08
5.18011e-08
5.31891e-08
5.46073e-08
5.60562e-08
5.75363e-08
5.9048e-08
6.05919e-08
6.21685e-08
6.37783e-08
6.54217e-08
6.70993e-08
6.88115e-08
7.05589e-08
7.2342e-08
7.41612e-08
7.60171e-08
7.79102e-08
7.98409e-08
8.18098e-08
8.38174e-08
8.58642e-08
8.79506e-08
9.00773e-08
9.22446e-08
9.44531e-08
9.67033e-08
9.89956e-08
1.01331e-07
1.03709e-07
1.0613e-07
1.08596e-07
1.11107e-07
1.13662e-07
1.16263e-07
1.1891e-07
1.21603e-07
1.24343e-07
1.2713e-07
1.29965e-07
1.32848e-07
1.3578e-07
1.38761e-07
1.41791e-07
1.44871e-07
1.48001e-07
1.51181e-07
1.54412e-07
1.57695e-07
1.61029e-07
1.64415e-07
1.67853e-07
1.71344e-07
1.74887e-07
1.78484e-07
1.82133e-07
1.85837e-07
1.89594e-07
1.93405e-07
1.97271e-07
2.01191e-07
2.05166e-07
2.09195e-07
2.13279e-07
2.17418e-07
2.21613e-07
2.25862e-07
2.30167e-07
2.34527e-07
2.38942e-07
2.43413e-07
2.47939e-07
2.52521e-07
2.57157e-07
2.61849e-07
2.66595e-07
2.71397e-07
2.76253e-07
2.81164e-07
2.86129e-07
2.91149e-07
2.96222e-07
3.01349e-07
3.06529e-07
3.11763e-07
3.17049e-07
3.22387e-07
3.27777e-07
3.33218e-07
3.38711e-07
3.44254e-07
3.49847e-07
3.55489e-07
3.6118e-07
3.6692e-07
3.72707e-07
3.78541e-07
3.84421e-07
3.90347e-07
3.96318e-07
4.02333e-07
4.08391e-07
4.14491e-07
4.20633e-07
4.26816e-07
4.33039e-07
4.393e-07
4.45599e-07
4.51935e-07
4.58307e-07
4.64714e-07
4.71154e-07
4.77626e-07
4.8413e-07
4.90665e-07
4.97228e-07
5.03818e-07
5.10436e-07
5.17078e-07
5.23744e-07
5.30433e-07
5.37142e-07
5.43872e-07
5.50619e-07
5.57384e-07
5.64164e-07
5.70957e-07
5.77763e-07
5.8458e-07
5.91406e-07
5.98239e-07
6.05078e-07
6.11922e-07
6.18768e-07
6.25615e-07
6.32462e-07
6.39306e-07
6.46145e-07
6.52979e-07
6.59805e-07
6.66621e-07
6.73426e-07
6.80218e-07
6.86994e-07
6.93754e-07
7.00495e-07
7.07215e-07
7.13913e-07
7.20586e-07
7.27233e-07
7.33852e-07
7.4044e-07
7.46997e-07
7.53519e-07
7.60005e-07
7.66454e-07
7.72862e-07
7.79228e-07
7.85551e-07
7.91828e-07
7.98057e-07
8.04237e-07
8.10365e-07
8.1644e-07
8.22459e-07
8.28421e-07
8.34323e-07
8.40165e-07
8.45943e-07
8.51656e-07
8.57303e-07
8.62881e-07
8.68388e-07
8.73823e-07
8.79184e-07
8.84469e-07
8.89676e-07
8.94803e-07
8.9985e-07
9.04813e-07
9.09692e-07
9.14484e-07
9.19189e-07
9.23804e-07
9.28327e-07
9.32759e-07
9.37095e-07
9.41337e-07
9.45481e-07
9.49526e-07
9.53471e-07
9.57315e-07
9.61057e-07
9.64694e-07
9.68226e-07
9.71651e-07
9.74969e-07
9.78179e-07
9.81278e-07
9.84267e-07
9.87143e-07
9.89908e-07
9.92558e-07
9.95094e-07
9.97514e-07
9.99819e-07
1.00201e-06
1.00408e-06
1.00603e-06
1.00787e-06
1.00958e-06
1.01118e-06
1.01266e-06
1.01401e-06
1.01525e-06
1.01637e-06
1.01737e-06
1.01825e-06
1.01901e-06
1.01965e-06
1.02017e-06
1.02057e-06
1.02086e-06
1.02103e-06
1.02108e-06
1.02102e-06
1.02085e-06
1.02056e-06
1.02016e-06
1.01966e-06
1.01904e-06
1.01832e-06
1.01749e-06
1.01657e-06
1.01554e-06
1.01443e-06
1.01321e-06
1.01191e-06
1.01053e-06
1.00907e-06
1.00752e-06
1.00591e-06
1.00423e-06
1.00249e-06
1.0007e-06
9.98863e-07
9.96984e-07
9.95073e-07
9.93139e-07
9.91191e-07
9.89239e-07
9.87294e-07
9.85367e-07
9.83471e-07
9.81619e-07
9.79826e-07
9.78106e-07
9.76475e-07
9.74952e-07
9.73554e-07
9.72299e-07
9.71207e-07
9.70298e-07
9.69591e-07
9.69106e-07
9.68856e-07
)
;
    }
    Wall
    {
        type            calculated;
        value           nonuniform List<scalar> 
400
(
4.39838e-12
1.40088e-11
2.45813e-11
3.6071e-11
4.84849e-11
6.18657e-11
7.62545e-11
9.1695e-11
1.08236e-10
1.25929e-10
1.44831e-10
1.65002e-10
1.865e-10
2.09391e-10
2.33736e-10
2.59602e-10
2.87055e-10
3.16163e-10
3.46993e-10
3.79616e-10
4.141e-10
4.50518e-10
4.88942e-10
5.29445e-10
5.72101e-10
6.16987e-10
6.64179e-10
7.13756e-10
7.65798e-10
8.20386e-10
8.77603e-10
9.37533e-10
1.00026e-09
1.06588e-09
1.13447e-09
1.20613e-09
1.28095e-09
1.35903e-09
1.44046e-09
1.52533e-09
1.61376e-09
1.70584e-09
1.80168e-09
1.90138e-09
2.00505e-09
2.1128e-09
2.22475e-09
2.34102e-09
2.46171e-09
2.58695e-09
2.71686e-09
2.85156e-09
2.99119e-09
3.13587e-09
3.28574e-09
3.44093e-09
3.60159e-09
3.76784e-09
3.93983e-09
4.11772e-09
4.30165e-09
4.49177e-09
4.68825e-09
4.89123e-09
5.10088e-09
5.31738e-09
5.54088e-09
5.77155e-09
6.00959e-09
6.25516e-09
6.50845e-09
6.76964e-09
7.03893e-09
7.31651e-09
7.60257e-09
7.89733e-09
8.20099e-09
8.51375e-09
8.83583e-09
9.16745e-09
9.50883e-09
9.8602e-09
1.02218e-08
1.05938e-08
1.09766e-08
1.13703e-08
1.17751e-08
1.21914e-08
1.26194e-08
1.30594e-08
1.35116e-08
1.39763e-08
1.44538e-08
1.49443e-08
1.54482e-08
1.59657e-08
1.64971e-08
1.70428e-08
1.7603e-08
1.81781e-08
1.87683e-08
1.9374e-08
1.99956e-08
2.06332e-08
2.12874e-08
2.19583e-08
2.26465e-08
2.33521e-08
2.40756e-08
2.48174e-08
2.55777e-08
2.6357e-08
2.71557e-08
2.7974e-08
2.88125e-08
2.96715e-08
3.05514e-08
3.14526e-08
3.23755e-08
3.33205e-08
3.42881e-08
3.52785e-08
3.62924e-08
3.73301e-08
3.83919e-08
3.94785e-08
4.05902e-08
4.17274e-08
4.28906e-08
4.40803e-08
4.52969e-08
4.65409e-08
4.78128e-08
4.91129e-08
5.04418e-08
5.18e-08
5.3188e-08
5.46061e-08
5.6055e-08
5.7535e-08
5.90468e-08
6.05907e-08
6.21672e-08
6.3777e-08
6.54204e-08
6.70979e-08
6.88101e-08
7.05575e-08
7.23405e-08
7.41597e-08
7.60155e-08
7.79086e-08
7.98393e-08
8.18081e-08
8.38157e-08
8.58624e-08
8.79489e-08
9.00755e-08
9.22428e-08
9.44512e-08
9.67013e-08
9.89936e-08
1.01329e-07
1.03707e-07
1.06128e-07
1.08594e-07
1.11104e-07
1.1366e-07
1.1626e-07
1.18907e-07
1.216e-07
1.2434e-07
1.27128e-07
1.29963e-07
1.32846e-07
1.35777e-07
1.38758e-07
1.41788e-07
1.44868e-07
1.47998e-07
1.51178e-07
1.54409e-07
1.57692e-07
1.61026e-07
1.64412e-07
1.6785e-07
1.7134e-07
1.74884e-07
1.7848e-07
1.8213e-07
1.85833e-07
1.89591e-07
1.93402e-07
1.97267e-07
2.01187e-07
2.05162e-07
2.09191e-07
2.13275e-07
2.17414e-07
2.21608e-07
2.25858e-07
2.30163e-07
2.34523e-07
2.38938e-07
2.43409e-07
2.47935e-07
2.52516e-07
2.57152e-07
2.61844e-07
2.66591e-07
2.71392e-07
2.76248e-07
2.81159e-07
2.86124e-07
2.91144e-07
2.96217e-07
3.01344e-07
3.06524e-07
3.11757e-07
3.17043e-07
3.22381e-07
3.27771e-07
3.33212e-07
3.38705e-07
3.44248e-07
3.4984e-07
3.55483e-07
3.61174e-07
3.66913e-07
3.727e-07
3.78534e-07
3.84415e-07
3.9034e-07
3.96311e-07
4.02326e-07
4.08384e-07
4.14484e-07
4.20626e-07
4.26809e-07
4.33032e-07
4.39293e-07
4.45592e-07
4.51928e-07
4.583e-07
4.64706e-07
4.71146e-07
4.77619e-07
4.84123e-07
4.90657e-07
4.9722e-07
5.0381e-07
5.10427e-07
5.1707e-07
5.23736e-07
5.30424e-07
5.37134e-07
5.43863e-07
5.50611e-07
5.57375e-07
5.64155e-07
5.70948e-07
5.77754e-07
5.84571e-07
5.91397e-07
5.9823e-07
6.05069e-07
6.11913e-07
6.18759e-07
6.25606e-07
6.32452e-07
6.39296e-07
6.46136e-07
6.52969e-07
6.59795e-07
6.66611e-07
6.73416e-07
6.80208e-07
6.86984e-07
6.93744e-07
7.00485e-07
7.07205e-07
7.13903e-07
7.20576e-07
7.27223e-07
7.33841e-07
7.4043e-07
7.46986e-07
7.53508e-07
7.59994e-07
7.66442e-07
7.72851e-07
7.79217e-07
7.8554e-07
7.91817e-07
7.98046e-07
8.04226e-07
8.10354e-07
8.16429e-07
8.22448e-07
8.2841e-07
8.34312e-07
8.40153e-07
8.45932e-07
8.51645e-07
8.57292e-07
8.62869e-07
8.68377e-07
8.73812e-07
8.79172e-07
8.84457e-07
8.89664e-07
8.94792e-07
8.99838e-07
9.04802e-07
9.0968e-07
9.14473e-07
9.19177e-07
9.23792e-07
9.28316e-07
9.32747e-07
9.37084e-07
9.41325e-07
9.45469e-07
9.49515e-07
9.5346e-07
9.57304e-07
9.61046e-07
9.64683e-07
9.68215e-07
9.71641e-07
9.74959e-07
9.78168e-07
9.81267e-07
9.84256e-07
9.87133e-07
9.89897e-07
9.92547e-07
9.95083e-07
9.97504e-07
9.99809e-07
1.002e-06
1.00407e-06
1.00602e-06
1.00786e-06
1.00957e-06
1.01117e-06
1.01265e-06
1.014e-06
1.01524e-06
1.01636e-06
1.01736e-06
1.01824e-06
1.019e-06
1.01964e-06
1.02016e-06
1.02056e-06
1.02085e-06
1.02102e-06
1.02107e-06
1.02101e-06
1.02084e-06
1.02055e-06
1.02015e-06
1.01965e-06
1.01903e-06
1.01831e-06
1.01749e-06
1.01656e-06
1.01554e-06
1.01442e-06
1.01321e-06
1.01191e-06
1.01052e-06
1.00906e-06
1.00752e-06
1.0059e-06
1.00423e-06
1.00249e-06
1.00069e-06
9.98856e-07
9.96977e-07
9.95066e-07
9.93132e-07
9.91185e-07
9.89233e-07
9.87288e-07
9.85361e-07
9.83465e-07
9.81614e-07
9.7982e-07
9.78101e-07
9.76471e-07
9.74948e-07
9.73549e-07
9.72295e-07
9.71204e-07
9.70296e-07
9.6959e-07
9.69105e-07
9.68855e-07
)
;
    }
}


// ************************************************************************* //
