/*--------------------------------*- C++ -*----------------------------------*\
  =========                 |
  \\      /  F ield         | OpenFOAM: The Open Source CFD Toolbox
   \\    /   O peration     | Website:  https://openfoam.org
    \\  /    A nd           | Version:  dev
     \\/     M anipulation  |
\*---------------------------------------------------------------------------*/
FoamFile
{
    format      ascii;
    class       volScalarField;
    location    "0.46";
    object      N1;
}
// * * * * * * * * * * * * * * * * * * * * * * * * * * * * * * * * * * * * * //

dimensions      [0 0 0 0 0 0 0];

internalField   nonuniform List<scalar> 
8000
(
3.33952e-11
1.0639e-10
1.86717e-10
2.74038e-10
3.68408e-10
4.70152e-10
5.79587e-10
6.97044e-10
8.22897e-10
9.57548e-10
1.10143e-09
1.25499e-09
1.4187e-09
1.59303e-09
1.77848e-09
1.97555e-09
2.18476e-09
2.40661e-09
2.64163e-09
2.89036e-09
3.15333e-09
3.43109e-09
3.7242e-09
4.03323e-09
4.35874e-09
4.70132e-09
5.06157e-09
5.44008e-09
5.83747e-09
6.25438e-09
6.69144e-09
7.14929e-09
7.62861e-09
8.13006e-09
8.65434e-09
9.20215e-09
9.7742e-09
1.03712e-08
1.0994e-08
1.16432e-08
1.23197e-08
1.30242e-08
1.37576e-08
1.45206e-08
1.53141e-08
1.6139e-08
1.69961e-08
1.78864e-08
1.88106e-08
1.97699e-08
2.0765e-08
2.17969e-08
2.28667e-08
2.39754e-08
2.51239e-08
2.63133e-08
2.75447e-08
2.88192e-08
3.01378e-08
3.15017e-08
3.29121e-08
3.43702e-08
3.5877e-08
3.74339e-08
3.90422e-08
4.0703e-08
4.24177e-08
4.41876e-08
4.60142e-08
4.78987e-08
4.98425e-08
5.18472e-08
5.39142e-08
5.60449e-08
5.82409e-08
6.05038e-08
6.28352e-08
6.52366e-08
6.77097e-08
7.02562e-08
7.28779e-08
7.55763e-08
7.83535e-08
8.1211e-08
8.41509e-08
8.71749e-08
9.0285e-08
9.34831e-08
9.67712e-08
1.00151e-07
1.03626e-07
1.07196e-07
1.10865e-07
1.14634e-07
1.18506e-07
1.22483e-07
1.26567e-07
1.3076e-07
1.35066e-07
1.39485e-07
1.44022e-07
1.48677e-07
1.53454e-07
1.58356e-07
1.63384e-07
1.68541e-07
1.73831e-07
1.79255e-07
1.84817e-07
1.90519e-07
1.96364e-07
2.02355e-07
2.08495e-07
2.14787e-07
2.21234e-07
2.27838e-07
2.34603e-07
2.41532e-07
2.48628e-07
2.55894e-07
2.63333e-07
2.70949e-07
2.78744e-07
2.86723e-07
2.94888e-07
3.03243e-07
3.11791e-07
3.20536e-07
3.29481e-07
3.3863e-07
3.47985e-07
3.57551e-07
3.67332e-07
3.7733e-07
3.87549e-07
3.97994e-07
4.08668e-07
4.19574e-07
4.30716e-07
4.42098e-07
4.53724e-07
4.65597e-07
4.77722e-07
4.90101e-07
5.0274e-07
5.15641e-07
5.28809e-07
5.42248e-07
5.55961e-07
5.69952e-07
5.84225e-07
5.98784e-07
6.13633e-07
6.28775e-07
6.44215e-07
6.59957e-07
6.76003e-07
6.92359e-07
7.09028e-07
7.26013e-07
7.43319e-07
7.6095e-07
7.78908e-07
7.97198e-07
8.15823e-07
8.34788e-07
8.54095e-07
8.73749e-07
8.93753e-07
9.1411e-07
9.34823e-07
9.55898e-07
9.77335e-07
9.9914e-07
1.02132e-06
1.04386e-06
1.06679e-06
1.09009e-06
1.11378e-06
1.13785e-06
1.16232e-06
1.18717e-06
1.21241e-06
1.23806e-06
1.2641e-06
1.29054e-06
1.31739e-06
1.34465e-06
1.37231e-06
1.40038e-06
1.42886e-06
1.45776e-06
1.48708e-06
1.51681e-06
1.54696e-06
1.57753e-06
1.60852e-06
1.63993e-06
1.67177e-06
1.70403e-06
1.73671e-06
1.76982e-06
1.80335e-06
1.83731e-06
1.8717e-06
1.90651e-06
1.94175e-06
1.97741e-06
2.01349e-06
2.05e-06
2.08693e-06
2.12428e-06
2.16206e-06
2.20025e-06
2.23885e-06
2.27787e-06
2.3173e-06
2.35715e-06
2.3974e-06
2.43805e-06
2.47911e-06
2.52057e-06
2.56242e-06
2.60466e-06
2.6473e-06
2.69031e-06
2.73371e-06
2.77748e-06
2.82163e-06
2.86614e-06
2.91101e-06
2.95624e-06
3.00182e-06
3.04774e-06
3.094e-06
3.1406e-06
3.18752e-06
3.23476e-06
3.28231e-06
3.33017e-06
3.37833e-06
3.42678e-06
3.47551e-06
3.52452e-06
3.57379e-06
3.62332e-06
3.67311e-06
3.72313e-06
3.77339e-06
3.82386e-06
3.87456e-06
3.92545e-06
3.97654e-06
4.02781e-06
4.07925e-06
4.13086e-06
4.18262e-06
4.23451e-06
4.28654e-06
4.33869e-06
4.39094e-06
4.44328e-06
4.49571e-06
4.54821e-06
4.60077e-06
4.65337e-06
4.70601e-06
4.75866e-06
4.81132e-06
4.86398e-06
4.91662e-06
4.96923e-06
5.02178e-06
5.07428e-06
5.12671e-06
5.17905e-06
5.23128e-06
5.2834e-06
5.33539e-06
5.38724e-06
5.43893e-06
5.49044e-06
5.54177e-06
5.59289e-06
5.6438e-06
5.69447e-06
5.7449e-06
5.79506e-06
5.84495e-06
5.89454e-06
5.94383e-06
5.9928e-06
6.04143e-06
6.0897e-06
6.13761e-06
6.18514e-06
6.23228e-06
6.279e-06
6.32529e-06
6.37114e-06
6.41654e-06
6.46147e-06
6.50591e-06
6.54985e-06
6.59328e-06
6.63618e-06
6.67854e-06
6.72034e-06
6.76157e-06
6.80222e-06
6.84227e-06
6.8817e-06
6.92052e-06
6.95869e-06
6.99621e-06
7.03307e-06
7.06926e-06
7.10475e-06
7.13955e-06
7.17363e-06
7.20698e-06
7.2396e-06
7.27147e-06
7.30259e-06
7.33293e-06
7.3625e-06
7.39127e-06
7.41925e-06
7.44641e-06
7.47276e-06
7.49828e-06
7.52296e-06
7.5468e-06
7.56979e-06
7.59191e-06
7.61317e-06
7.63356e-06
7.65306e-06
7.67168e-06
7.68941e-06
7.70623e-06
7.72216e-06
7.73718e-06
7.75129e-06
7.76449e-06
7.77677e-06
7.78813e-06
7.79858e-06
7.8081e-06
7.8167e-06
7.82439e-06
7.83115e-06
7.83699e-06
7.84192e-06
7.84594e-06
7.84905e-06
7.85125e-06
7.85256e-06
7.85297e-06
7.85251e-06
7.85117e-06
7.84896e-06
7.8459e-06
7.84199e-06
7.83726e-06
7.83171e-06
7.82537e-06
7.81825e-06
7.81038e-06
7.80177e-06
7.79246e-06
7.78246e-06
7.77181e-06
7.76054e-06
7.74869e-06
7.73629e-06
7.72338e-06
7.71001e-06
7.69623e-06
7.68209e-06
7.66764e-06
7.65294e-06
7.63807e-06
7.62309e-06
7.60807e-06
7.59311e-06
7.57829e-06
7.56371e-06
7.54947e-06
7.53568e-06
7.52245e-06
7.50991e-06
7.49819e-06
7.48744e-06
7.47779e-06
7.46939e-06
7.4624e-06
7.45697e-06
7.45323e-06
7.45131e-06
3.27145e-11
1.04874e-10
1.84524e-10
2.71547e-10
3.65933e-10
4.67896e-10
5.77714e-10
6.95707e-10
8.2224e-10
9.5772e-10
1.10258e-09
1.25728e-09
1.4223e-09
1.59812e-09
1.78526e-09
1.98421e-09
2.19552e-09
2.4197e-09
2.6573e-09
2.90887e-09
3.17495e-09
3.45612e-09
3.75294e-09
4.066e-09
4.39589e-09
4.74321e-09
5.10857e-09
5.49261e-09
5.89594e-09
6.31923e-09
6.76313e-09
7.22831e-09
7.71546e-09
8.22528e-09
8.75848e-09
9.31579e-09
9.89794e-09
1.05057e-08
1.11398e-08
1.18011e-08
1.24904e-08
1.32084e-08
1.3956e-08
1.47341e-08
1.55436e-08
1.63852e-08
1.726e-08
1.81687e-08
1.91125e-08
2.00922e-08
2.11088e-08
2.21633e-08
2.32567e-08
2.43901e-08
2.55644e-08
2.67809e-08
2.80406e-08
2.93446e-08
3.0694e-08
3.20901e-08
3.35341e-08
3.5027e-08
3.65703e-08
3.81651e-08
3.98128e-08
4.15146e-08
4.3272e-08
4.50862e-08
4.69588e-08
4.88911e-08
5.08845e-08
5.29406e-08
5.50609e-08
5.72469e-08
5.95002e-08
6.18225e-08
6.42152e-08
6.66802e-08
6.92191e-08
7.18337e-08
7.45257e-08
7.72969e-08
8.01492e-08
8.30844e-08
8.61044e-08
8.92112e-08
9.24067e-08
9.5693e-08
9.90721e-08
1.02546e-07
1.06117e-07
1.09787e-07
1.13559e-07
1.17434e-07
1.21415e-07
1.25504e-07
1.29704e-07
1.34016e-07
1.38444e-07
1.4299e-07
1.47656e-07
1.52445e-07
1.57359e-07
1.62401e-07
1.67574e-07
1.72881e-07
1.78323e-07
1.83905e-07
1.89628e-07
1.95496e-07
2.01512e-07
2.07678e-07
2.13998e-07
2.20474e-07
2.27109e-07
2.33907e-07
2.40871e-07
2.48004e-07
2.55309e-07
2.6279e-07
2.70449e-07
2.7829e-07
2.86317e-07
2.94532e-07
3.0294e-07
3.11544e-07
3.20346e-07
3.29352e-07
3.38563e-07
3.47985e-07
3.5762e-07
3.67472e-07
3.77545e-07
3.87843e-07
3.98369e-07
4.09128e-07
4.20122e-07
4.31356e-07
4.42833e-07
4.54558e-07
4.66534e-07
4.78766e-07
4.91256e-07
5.0401e-07
5.17031e-07
5.30322e-07
5.43889e-07
5.57734e-07
5.71863e-07
5.86278e-07
6.00984e-07
6.15985e-07
6.31285e-07
6.46888e-07
6.62798e-07
6.79019e-07
6.95554e-07
7.12408e-07
7.29585e-07
7.47089e-07
7.64923e-07
7.83092e-07
8.01599e-07
8.20448e-07
8.39643e-07
8.59188e-07
8.79086e-07
8.99342e-07
9.19959e-07
9.4094e-07
9.6229e-07
9.84011e-07
1.00611e-06
1.02858e-06
1.05144e-06
1.07468e-06
1.09831e-06
1.12233e-06
1.14675e-06
1.17156e-06
1.19678e-06
1.2224e-06
1.24843e-06
1.27486e-06
1.30171e-06
1.32897e-06
1.35664e-06
1.38474e-06
1.41326e-06
1.4422e-06
1.47157e-06
1.50136e-06
1.53158e-06
1.56224e-06
1.59332e-06
1.62484e-06
1.65679e-06
1.68918e-06
1.72201e-06
1.75527e-06
1.78897e-06
1.82311e-06
1.85769e-06
1.89271e-06
1.92817e-06
1.96406e-06
2.0004e-06
2.03717e-06
2.07438e-06
2.11203e-06
2.15012e-06
2.18864e-06
2.22759e-06
2.26697e-06
2.30679e-06
2.34703e-06
2.3877e-06
2.42879e-06
2.4703e-06
2.51224e-06
2.55458e-06
2.59734e-06
2.64051e-06
2.68408e-06
2.72805e-06
2.77243e-06
2.81719e-06
2.86234e-06
2.90788e-06
2.95379e-06
3.00008e-06
3.04673e-06
3.09375e-06
3.14112e-06
3.18885e-06
3.23692e-06
3.28532e-06
3.33406e-06
3.38312e-06
3.4325e-06
3.48218e-06
3.53217e-06
3.58245e-06
3.63301e-06
3.68385e-06
3.73496e-06
3.78633e-06
3.83794e-06
3.8898e-06
3.94188e-06
3.99419e-06
4.04671e-06
4.09943e-06
4.15234e-06
4.20543e-06
4.25868e-06
4.3121e-06
4.36566e-06
4.41935e-06
4.47317e-06
4.52709e-06
4.58112e-06
4.63523e-06
4.68942e-06
4.74366e-06
4.79796e-06
4.85229e-06
4.90664e-06
4.961e-06
5.01536e-06
5.0697e-06
5.124e-06
5.17826e-06
5.23246e-06
5.28658e-06
5.34061e-06
5.39454e-06
5.44836e-06
5.50204e-06
5.55557e-06
5.60894e-06
5.66213e-06
5.71512e-06
5.76791e-06
5.82048e-06
5.87281e-06
5.92488e-06
5.97669e-06
6.02821e-06
6.07943e-06
6.13033e-06
6.18091e-06
6.23114e-06
6.281e-06
6.33049e-06
6.37959e-06
6.42827e-06
6.47654e-06
6.52436e-06
6.57174e-06
6.61864e-06
6.66506e-06
6.71097e-06
6.75638e-06
6.80125e-06
6.84558e-06
6.88936e-06
6.93256e-06
6.97517e-06
7.01718e-06
7.05857e-06
7.09933e-06
7.13945e-06
7.17892e-06
7.21771e-06
7.25581e-06
7.29323e-06
7.32993e-06
7.3659e-06
7.40115e-06
7.43564e-06
7.46938e-06
7.50235e-06
7.53453e-06
7.56593e-06
7.59651e-06
7.62629e-06
7.65524e-06
7.68335e-06
7.71062e-06
7.73704e-06
7.76259e-06
7.78728e-06
7.81108e-06
7.834e-06
7.85602e-06
7.87714e-06
7.89735e-06
7.91665e-06
7.93503e-06
7.95248e-06
7.969e-06
7.98459e-06
7.99924e-06
8.01294e-06
8.0257e-06
8.03752e-06
8.04838e-06
8.05829e-06
8.06726e-06
8.07527e-06
8.08234e-06
8.08845e-06
8.09362e-06
8.09785e-06
8.10114e-06
8.1035e-06
8.10493e-06
8.10543e-06
8.10504e-06
8.10374e-06
8.10154e-06
8.09845e-06
8.09449e-06
8.08968e-06
8.08403e-06
8.07756e-06
8.07028e-06
8.06222e-06
8.0534e-06
8.04385e-06
8.0336e-06
8.02267e-06
8.01109e-06
7.99891e-06
7.98616e-06
7.97288e-06
7.95912e-06
7.94493e-06
7.93036e-06
7.91548e-06
7.90033e-06
7.88499e-06
7.86954e-06
7.85404e-06
7.8386e-06
7.82329e-06
7.80822e-06
7.79348e-06
7.77921e-06
7.7655e-06
7.7525e-06
7.74034e-06
7.72916e-06
7.71912e-06
7.71036e-06
7.70305e-06
7.69734e-06
7.69341e-06
7.69138e-06
3.21022e-11
1.02989e-10
1.81163e-10
2.66849e-10
3.60171e-10
4.61306e-10
5.70497e-10
6.88038e-10
8.14281e-10
9.4962e-10
1.09448e-09
1.24933e-09
1.41464e-09
1.59091e-09
1.77865e-09
1.97837e-09
2.19062e-09
2.41592e-09
2.65483e-09
2.90791e-09
3.17572e-09
3.45884e-09
3.75785e-09
4.07335e-09
4.40595e-09
4.75626e-09
5.12491e-09
5.51254e-09
5.91981e-09
6.34737e-09
6.79592e-09
7.26613e-09
7.75872e-09
8.2744e-09
8.8139e-09
9.37797e-09
9.96738e-09
1.05829e-08
1.12253e-08
1.18955e-08
1.25941e-08
1.33222e-08
1.40805e-08
1.48699e-08
1.56913e-08
1.65456e-08
1.74337e-08
1.83567e-08
1.93153e-08
2.03108e-08
2.13439e-08
2.24159e-08
2.35276e-08
2.46802e-08
2.58748e-08
2.71125e-08
2.83943e-08
2.97216e-08
3.10954e-08
3.25169e-08
3.39874e-08
3.55082e-08
3.70804e-08
3.87055e-08
4.03846e-08
4.21193e-08
4.39109e-08
4.57607e-08
4.76703e-08
4.96411e-08
5.16745e-08
5.37722e-08
5.59357e-08
5.81665e-08
6.04663e-08
6.28367e-08
6.52795e-08
6.77962e-08
7.03888e-08
7.30589e-08
7.58084e-08
7.8639e-08
8.15528e-08
8.45516e-08
8.76374e-08
9.08122e-08
9.40779e-08
9.74367e-08
1.00891e-07
1.04442e-07
1.08093e-07
1.11845e-07
1.15701e-07
1.19664e-07
1.23735e-07
1.27917e-07
1.32213e-07
1.36624e-07
1.41153e-07
1.45804e-07
1.50577e-07
1.55477e-07
1.60505e-07
1.65665e-07
1.70958e-07
1.76389e-07
1.81959e-07
1.87672e-07
1.9353e-07
1.99536e-07
2.05694e-07
2.12006e-07
2.18476e-07
2.25106e-07
2.31899e-07
2.3886e-07
2.45991e-07
2.53294e-07
2.60775e-07
2.68435e-07
2.76279e-07
2.84309e-07
2.9253e-07
3.00944e-07
3.09556e-07
3.18368e-07
3.27385e-07
3.36609e-07
3.46046e-07
3.55697e-07
3.65568e-07
3.75661e-07
3.85981e-07
3.96532e-07
4.07317e-07
4.1834e-07
4.29605e-07
4.41116e-07
4.52876e-07
4.64891e-07
4.77164e-07
4.89698e-07
5.02499e-07
5.15569e-07
5.28913e-07
5.42536e-07
5.5644e-07
5.70631e-07
5.85112e-07
5.99887e-07
6.14961e-07
6.30338e-07
6.46021e-07
6.62016e-07
6.78325e-07
6.94953e-07
7.11905e-07
7.29183e-07
7.46793e-07
7.64738e-07
7.83023e-07
8.0165e-07
8.20626e-07
8.39952e-07
8.59634e-07
8.79674e-07
9.00078e-07
9.20849e-07
9.4199e-07
9.63505e-07
9.85398e-07
1.00767e-06
1.03033e-06
1.05338e-06
1.07682e-06
1.10066e-06
1.1249e-06
1.14953e-06
1.17458e-06
1.20003e-06
1.22589e-06
1.25217e-06
1.27887e-06
1.30598e-06
1.33352e-06
1.36149e-06
1.38988e-06
1.4187e-06
1.44796e-06
1.47765e-06
1.50777e-06
1.53834e-06
1.56935e-06
1.6008e-06
1.63269e-06
1.66503e-06
1.69782e-06
1.73105e-06
1.76473e-06
1.79886e-06
1.83345e-06
1.86848e-06
1.90396e-06
1.9399e-06
1.97629e-06
2.01313e-06
2.05042e-06
2.08816e-06
2.12635e-06
2.16499e-06
2.20408e-06
2.24362e-06
2.2836e-06
2.32402e-06
2.36489e-06
2.4062e-06
2.44795e-06
2.49013e-06
2.53275e-06
2.57579e-06
2.61927e-06
2.66317e-06
2.70748e-06
2.75222e-06
2.79737e-06
2.84292e-06
2.88889e-06
2.93525e-06
2.982e-06
3.02915e-06
3.07668e-06
3.12459e-06
3.17287e-06
3.22153e-06
3.27054e-06
3.3199e-06
3.36962e-06
3.41967e-06
3.47006e-06
3.52078e-06
3.57181e-06
3.62315e-06
3.6748e-06
3.72674e-06
3.77897e-06
3.83147e-06
3.88424e-06
3.93727e-06
3.99054e-06
4.04405e-06
4.0978e-06
4.15176e-06
4.20592e-06
4.26029e-06
4.31484e-06
4.36957e-06
4.42445e-06
4.47949e-06
4.53467e-06
4.58998e-06
4.6454e-06
4.70093e-06
4.75655e-06
4.81224e-06
4.868e-06
4.92381e-06
4.97966e-06
5.03553e-06
5.09142e-06
5.1473e-06
5.20316e-06
5.259e-06
5.31478e-06
5.37051e-06
5.42616e-06
5.48172e-06
5.53718e-06
5.59252e-06
5.64772e-06
5.70277e-06
5.75766e-06
5.81237e-06
5.86688e-06
5.92118e-06
5.97526e-06
6.02909e-06
6.08266e-06
6.13595e-06
6.18896e-06
6.24166e-06
6.29404e-06
6.34608e-06
6.39777e-06
6.44908e-06
6.50001e-06
6.55054e-06
6.60066e-06
6.65034e-06
6.69957e-06
6.74833e-06
6.79662e-06
6.84441e-06
6.89169e-06
6.93844e-06
6.98465e-06
7.0303e-06
7.07539e-06
7.11988e-06
7.16377e-06
7.20705e-06
7.24969e-06
7.29169e-06
7.33303e-06
7.37369e-06
7.41367e-06
7.45295e-06
7.49151e-06
7.52934e-06
7.56644e-06
7.60277e-06
7.63835e-06
7.67314e-06
7.70715e-06
7.74035e-06
7.77274e-06
7.8043e-06
7.83503e-06
7.86491e-06
7.89394e-06
7.92209e-06
7.94938e-06
7.97577e-06
8.00128e-06
8.02588e-06
8.04957e-06
8.07234e-06
8.09418e-06
8.1151e-06
8.13507e-06
8.1541e-06
8.17218e-06
8.1893e-06
8.20546e-06
8.22065e-06
8.23488e-06
8.24814e-06
8.26042e-06
8.27173e-06
8.28206e-06
8.29142e-06
8.2998e-06
8.3072e-06
8.31362e-06
8.31908e-06
8.32356e-06
8.32708e-06
8.32964e-06
8.33125e-06
8.33191e-06
8.33163e-06
8.33044e-06
8.3283e-06
8.32526e-06
8.32132e-06
8.3165e-06
8.31081e-06
8.30428e-06
8.29691e-06
8.28874e-06
8.27979e-06
8.27008e-06
8.25964e-06
8.2485e-06
8.2367e-06
8.22427e-06
8.21124e-06
8.19767e-06
8.18359e-06
8.16907e-06
8.15415e-06
8.13889e-06
8.12335e-06
8.10761e-06
8.09174e-06
8.07582e-06
8.05993e-06
8.04417e-06
8.02864e-06
8.01344e-06
7.9987e-06
7.98453e-06
7.97107e-06
7.95845e-06
7.94683e-06
7.93637e-06
7.92721e-06
7.91954e-06
7.91353e-06
7.90936e-06
7.90719e-06
3.14934e-11
1.01014e-10
1.77563e-10
2.61535e-10
3.53209e-10
4.52829e-10
5.60656e-10
6.76992e-10
8.02184e-10
9.3662e-10
1.08072e-09
1.23495e-09
1.39978e-09
1.5757e-09
1.76323e-09
1.96288e-09
2.17519e-09
2.4007e-09
2.63998e-09
2.89357e-09
3.16206e-09
3.44604e-09
3.74608e-09
4.06282e-09
4.39685e-09
4.7488e-09
5.11933e-09
5.50908e-09
5.91873e-09
6.34894e-09
6.80041e-09
7.27385e-09
7.76998e-09
8.28954e-09
8.83327e-09
9.40194e-09
9.99633e-09
1.06172e-08
1.12655e-08
1.19419e-08
1.26472e-08
1.33825e-08
1.41485e-08
1.49461e-08
1.57762e-08
1.66399e-08
1.75379e-08
1.84714e-08
1.94412e-08
2.04484e-08
2.14941e-08
2.25792e-08
2.37049e-08
2.48722e-08
2.60822e-08
2.73361e-08
2.86351e-08
2.99803e-08
3.13729e-08
3.28142e-08
3.43054e-08
3.58478e-08
3.74427e-08
3.90915e-08
4.07954e-08
4.25559e-08
4.43745e-08
4.62524e-08
4.81913e-08
5.01926e-08
5.22578e-08
5.43886e-08
5.65864e-08
5.88529e-08
6.11899e-08
6.35988e-08
6.60816e-08
6.86399e-08
7.12755e-08
7.39902e-08
7.67859e-08
7.96645e-08
8.2628e-08
8.56781e-08
8.8817e-08
9.20468e-08
9.53693e-08
9.87869e-08
1.02302e-07
1.05916e-07
1.09631e-07
1.1345e-07
1.17376e-07
1.2141e-07
1.25554e-07
1.29812e-07
1.34186e-07
1.38677e-07
1.4329e-07
1.48026e-07
1.52887e-07
1.57878e-07
1.62999e-07
1.68255e-07
1.73648e-07
1.7918e-07
1.84855e-07
1.90675e-07
1.96644e-07
2.02765e-07
2.09039e-07
2.15472e-07
2.22065e-07
2.28822e-07
2.35746e-07
2.4284e-07
2.50108e-07
2.57553e-07
2.65179e-07
2.72988e-07
2.80984e-07
2.89171e-07
2.97552e-07
3.06131e-07
3.14912e-07
3.23897e-07
3.33091e-07
3.42498e-07
3.5212e-07
3.61963e-07
3.72029e-07
3.82323e-07
3.92848e-07
4.03609e-07
4.14609e-07
4.25852e-07
4.37343e-07
4.49085e-07
4.61082e-07
4.73338e-07
4.85858e-07
4.98645e-07
5.11704e-07
5.25039e-07
5.38654e-07
5.52552e-07
5.66739e-07
5.81219e-07
5.95995e-07
6.11072e-07
6.26454e-07
6.42145e-07
6.5815e-07
6.74472e-07
6.91117e-07
7.08087e-07
7.25387e-07
7.43022e-07
7.60996e-07
7.79312e-07
7.97975e-07
8.16989e-07
8.36358e-07
8.56086e-07
8.76177e-07
8.96636e-07
9.17465e-07
9.38669e-07
9.60253e-07
9.82218e-07
1.00457e-06
1.02731e-06
1.05045e-06
1.07398e-06
1.09792e-06
1.12226e-06
1.14701e-06
1.17216e-06
1.19774e-06
1.22373e-06
1.25014e-06
1.27698e-06
1.30424e-06
1.33194e-06
1.36006e-06
1.38862e-06
1.41762e-06
1.44706e-06
1.47695e-06
1.50727e-06
1.53805e-06
1.56927e-06
1.60095e-06
1.63308e-06
1.66566e-06
1.6987e-06
1.73219e-06
1.76615e-06
1.80056e-06
1.83543e-06
1.87077e-06
1.90656e-06
1.94282e-06
1.97954e-06
2.01673e-06
2.05437e-06
2.09248e-06
2.13105e-06
2.17008e-06
2.20957e-06
2.24953e-06
2.28993e-06
2.3308e-06
2.37212e-06
2.41389e-06
2.45612e-06
2.49879e-06
2.54191e-06
2.58548e-06
2.62949e-06
2.67393e-06
2.71881e-06
2.76412e-06
2.80986e-06
2.85602e-06
2.9026e-06
2.9496e-06
2.99701e-06
3.04482e-06
3.09303e-06
3.14164e-06
3.19063e-06
3.24001e-06
3.28977e-06
3.3399e-06
3.39039e-06
3.44124e-06
3.49244e-06
3.54398e-06
3.59586e-06
3.64806e-06
3.70059e-06
3.75343e-06
3.80656e-06
3.86e-06
3.91371e-06
3.96771e-06
4.02196e-06
4.07648e-06
4.13124e-06
4.18623e-06
4.24145e-06
4.29689e-06
4.35253e-06
4.40836e-06
4.46437e-06
4.52055e-06
4.57689e-06
4.63337e-06
4.68999e-06
4.74672e-06
4.80357e-06
4.86051e-06
4.91753e-06
4.97462e-06
5.03176e-06
5.08895e-06
5.14616e-06
5.20339e-06
5.26062e-06
5.31783e-06
5.37501e-06
5.43215e-06
5.48922e-06
5.54623e-06
5.60314e-06
5.65995e-06
5.71664e-06
5.7732e-06
5.82961e-06
5.88584e-06
5.9419e-06
5.99776e-06
6.0534e-06
6.10882e-06
6.16399e-06
6.21889e-06
6.27352e-06
6.32786e-06
6.38188e-06
6.43557e-06
6.48893e-06
6.54192e-06
6.59454e-06
6.64676e-06
6.69858e-06
6.74997e-06
6.80092e-06
6.85142e-06
6.90144e-06
6.95097e-06
7e-06
7.04851e-06
7.09648e-06
7.1439e-06
7.19075e-06
7.23701e-06
7.28268e-06
7.32774e-06
7.37216e-06
7.41595e-06
7.45907e-06
7.50152e-06
7.54328e-06
7.58434e-06
7.62469e-06
7.66431e-06
7.70318e-06
7.7413e-06
7.77864e-06
7.81521e-06
7.85098e-06
7.88594e-06
7.92009e-06
7.9534e-06
7.98587e-06
8.01748e-06
8.04823e-06
8.07811e-06
8.1071e-06
8.13519e-06
8.16238e-06
8.18866e-06
8.21401e-06
8.23843e-06
8.26191e-06
8.28445e-06
8.30603e-06
8.32665e-06
8.34631e-06
8.36499e-06
8.38269e-06
8.39941e-06
8.41514e-06
8.42989e-06
8.44363e-06
8.45639e-06
8.46814e-06
8.47889e-06
8.48865e-06
8.4974e-06
8.50515e-06
8.51191e-06
8.51767e-06
8.52243e-06
8.52621e-06
8.529e-06
8.53081e-06
8.53165e-06
8.53154e-06
8.53049e-06
8.52846e-06
8.52551e-06
8.52163e-06
8.51685e-06
8.51118e-06
8.50464e-06
8.49724e-06
8.48902e-06
8.47999e-06
8.47018e-06
8.45962e-06
8.44834e-06
8.43637e-06
8.42374e-06
8.41051e-06
8.3967e-06
8.38238e-06
8.36758e-06
8.35237e-06
8.3368e-06
8.32094e-06
8.30485e-06
8.28862e-06
8.27232e-06
8.25604e-06
8.23988e-06
8.22393e-06
8.20831e-06
8.19313e-06
8.17852e-06
8.16462e-06
8.15156e-06
8.13951e-06
8.12862e-06
8.11906e-06
8.11102e-06
8.1047e-06
8.10028e-06
8.09796e-06
3.09185e-11
9.91408e-11
1.74154e-10
2.56392e-10
3.46245e-10
4.44044e-10
5.50112e-10
6.6479e-10
7.88444e-10
9.21472e-10
1.0643e-09
1.21738e-09
1.3812e-09
1.55623e-09
1.74298e-09
1.94198e-09
2.15376e-09
2.37886e-09
2.61784e-09
2.87126e-09
3.13971e-09
3.42377e-09
3.72404e-09
4.04114e-09
4.3757e-09
4.72834e-09
5.09972e-09
5.49051e-09
5.90138e-09
6.33303e-09
6.78615e-09
7.26147e-09
7.75973e-09
8.28167e-09
8.82805e-09
9.39965e-09
9.99728e-09
1.06217e-08
1.12738e-08
1.19545e-08
1.26644e-08
1.34046e-08
1.4176e-08
1.49794e-08
1.58157e-08
1.6686e-08
1.75912e-08
1.85323e-08
1.95102e-08
2.05261e-08
2.15809e-08
2.26758e-08
2.38118e-08
2.499e-08
2.62116e-08
2.74777e-08
2.87896e-08
3.01483e-08
3.15552e-08
3.30115e-08
3.45185e-08
3.60775e-08
3.76897e-08
3.93567e-08
4.10797e-08
4.28602e-08
4.46995e-08
4.65993e-08
4.85609e-08
5.05859e-08
5.26759e-08
5.48325e-08
5.70572e-08
5.93517e-08
6.17177e-08
6.4157e-08
6.66712e-08
6.92622e-08
7.19318e-08
7.46817e-08
7.7514e-08
8.04305e-08
8.34332e-08
8.65241e-08
8.97052e-08
9.29786e-08
9.63464e-08
9.98108e-08
1.03374e-07
1.07038e-07
1.10805e-07
1.14678e-07
1.18658e-07
1.22749e-07
1.26953e-07
1.31271e-07
1.35707e-07
1.40264e-07
1.44943e-07
1.49747e-07
1.5468e-07
1.59743e-07
1.6494e-07
1.70274e-07
1.75746e-07
1.8136e-07
1.8712e-07
1.93027e-07
1.99085e-07
2.05298e-07
2.11667e-07
2.18197e-07
2.2489e-07
2.3175e-07
2.3878e-07
2.45983e-07
2.53363e-07
2.60922e-07
2.68665e-07
2.76595e-07
2.84715e-07
2.9303e-07
3.01541e-07
3.10254e-07
3.19172e-07
3.28299e-07
3.37637e-07
3.47192e-07
3.56967e-07
3.66965e-07
3.77191e-07
3.87649e-07
3.98342e-07
4.09274e-07
4.2045e-07
4.31874e-07
4.43549e-07
4.5548e-07
4.6767e-07
4.80124e-07
4.92847e-07
5.05842e-07
5.19113e-07
5.32664e-07
5.46501e-07
5.60627e-07
5.75046e-07
5.89763e-07
6.04781e-07
6.20106e-07
6.35742e-07
6.51692e-07
6.67961e-07
6.84554e-07
7.01474e-07
7.18726e-07
7.36315e-07
7.54244e-07
7.72517e-07
7.9114e-07
8.10115e-07
8.29448e-07
8.49143e-07
8.69203e-07
8.89633e-07
9.10437e-07
9.31618e-07
9.53182e-07
9.75131e-07
9.9747e-07
1.0202e-06
1.04333e-06
1.06686e-06
1.0908e-06
1.11515e-06
1.1399e-06
1.16508e-06
1.19067e-06
1.21668e-06
1.24312e-06
1.26999e-06
1.29729e-06
1.32503e-06
1.35321e-06
1.38182e-06
1.41088e-06
1.44039e-06
1.47034e-06
1.50075e-06
1.53161e-06
1.56292e-06
1.5947e-06
1.62693e-06
1.65962e-06
1.69278e-06
1.72641e-06
1.7605e-06
1.79505e-06
1.83008e-06
1.86557e-06
1.90154e-06
1.93798e-06
1.97488e-06
2.01226e-06
2.05012e-06
2.08844e-06
2.12723e-06
2.1665e-06
2.20624e-06
2.24644e-06
2.28712e-06
2.32826e-06
2.36987e-06
2.41195e-06
2.45448e-06
2.49748e-06
2.54094e-06
2.58485e-06
2.62922e-06
2.67403e-06
2.7193e-06
2.76501e-06
2.81116e-06
2.85775e-06
2.90476e-06
2.95221e-06
3.00009e-06
3.04838e-06
3.09708e-06
3.1462e-06
3.19572e-06
3.24564e-06
3.29595e-06
3.34665e-06
3.39772e-06
3.44917e-06
3.50098e-06
3.55316e-06
3.60568e-06
3.65855e-06
3.71176e-06
3.76529e-06
3.81914e-06
3.8733e-06
3.92776e-06
3.98251e-06
4.03755e-06
4.09286e-06
4.14843e-06
4.20426e-06
4.26032e-06
4.31662e-06
4.37314e-06
4.42987e-06
4.4868e-06
4.54392e-06
4.6012e-06
4.65866e-06
4.71626e-06
4.774e-06
4.83187e-06
4.88984e-06
4.94792e-06
5.00608e-06
5.06432e-06
5.12261e-06
5.18095e-06
5.23932e-06
5.29771e-06
5.3561e-06
5.41447e-06
5.47282e-06
5.53112e-06
5.58937e-06
5.64755e-06
5.70563e-06
5.76362e-06
5.82148e-06
5.87921e-06
5.93679e-06
5.9942e-06
6.05143e-06
6.10845e-06
6.16527e-06
6.22185e-06
6.27818e-06
6.33425e-06
6.39004e-06
6.44553e-06
6.50071e-06
6.55556e-06
6.61006e-06
6.66419e-06
6.71795e-06
6.7713e-06
6.82425e-06
6.87676e-06
6.92883e-06
6.98044e-06
7.03156e-06
7.08219e-06
7.13231e-06
7.1819e-06
7.23094e-06
7.27943e-06
7.32733e-06
7.37465e-06
7.42135e-06
7.46744e-06
7.51288e-06
7.55767e-06
7.6018e-06
7.64523e-06
7.68797e-06
7.73e-06
7.7713e-06
7.81185e-06
7.85165e-06
7.89068e-06
7.92893e-06
7.96639e-06
8.00303e-06
8.03885e-06
8.07384e-06
8.10799e-06
8.14127e-06
8.17369e-06
8.20523e-06
8.23587e-06
8.26561e-06
8.29445e-06
8.32236e-06
8.34934e-06
8.37537e-06
8.40047e-06
8.4246e-06
8.44777e-06
8.46997e-06
8.49119e-06
8.51142e-06
8.53066e-06
8.54891e-06
8.56615e-06
8.58239e-06
8.59761e-06
8.61182e-06
8.62502e-06
8.6372e-06
8.64836e-06
8.6585e-06
8.66762e-06
8.67571e-06
8.68279e-06
8.68885e-06
8.6939e-06
8.69794e-06
8.70097e-06
8.703e-06
8.70404e-06
8.7041e-06
8.70321e-06
8.70133e-06
8.69849e-06
8.6947e-06
8.68999e-06
8.68437e-06
8.67786e-06
8.67047e-06
8.66223e-06
8.65317e-06
8.64331e-06
8.63267e-06
8.62129e-06
8.6092e-06
8.59644e-06
8.58305e-06
8.56907e-06
8.55455e-06
8.53954e-06
8.52409e-06
8.50827e-06
8.49214e-06
8.47576e-06
8.45922e-06
8.4426e-06
8.42598e-06
8.40947e-06
8.39315e-06
8.37715e-06
8.36158e-06
8.34657e-06
8.33226e-06
8.3188e-06
8.30633e-06
8.29504e-06
8.2851e-06
8.27671e-06
8.27007e-06
8.26541e-06
8.26295e-06
3.04096e-11
9.74765e-11
1.71126e-10
2.51784e-10
3.39895e-10
4.35866e-10
5.40089e-10
6.52957e-10
7.74876e-10
9.06267e-10
1.04757e-09
1.19924e-09
1.36175e-09
1.53559e-09
1.72126e-09
1.91929e-09
2.13019e-09
2.35451e-09
2.59281e-09
2.84565e-09
3.1136e-09
3.39727e-09
3.69725e-09
4.01417e-09
4.34865e-09
4.70134e-09
5.0729e-09
5.46399e-09
5.87532e-09
6.30756e-09
6.76145e-09
7.23771e-09
7.73708e-09
8.26033e-09
8.80822e-09
9.38155e-09
9.98113e-09
1.06078e-08
1.12623e-08
1.19457e-08
1.26586e-08
1.34021e-08
1.4177e-08
1.49843e-08
1.58249e-08
1.66998e-08
1.76099e-08
1.85563e-08
1.954e-08
2.0562e-08
2.16234e-08
2.27252e-08
2.38687e-08
2.50548e-08
2.62848e-08
2.75599e-08
2.88812e-08
3.02499e-08
3.16674e-08
3.31348e-08
3.46535e-08
3.62248e-08
3.78501e-08
3.95307e-08
4.1268e-08
4.30635e-08
4.49187e-08
4.68349e-08
4.88138e-08
5.08569e-08
5.29657e-08
5.51419e-08
5.73872e-08
5.97031e-08
6.20915e-08
6.45539e-08
6.70924e-08
6.97085e-08
7.24042e-08
7.51814e-08
7.80419e-08
8.09878e-08
8.40209e-08
8.71433e-08
9.03572e-08
9.36645e-08
9.70674e-08
1.00568e-07
1.04169e-07
1.07872e-07
1.11679e-07
1.15594e-07
1.19618e-07
1.23753e-07
1.28003e-07
1.32369e-07
1.36854e-07
1.41461e-07
1.46192e-07
1.51051e-07
1.56039e-07
1.6116e-07
1.66416e-07
1.7181e-07
1.77345e-07
1.83025e-07
1.88851e-07
1.94827e-07
2.00956e-07
2.07241e-07
2.13685e-07
2.20292e-07
2.27064e-07
2.34005e-07
2.41119e-07
2.48408e-07
2.55876e-07
2.63526e-07
2.71363e-07
2.79388e-07
2.87607e-07
2.96023e-07
3.04638e-07
3.13458e-07
3.22485e-07
3.31724e-07
3.41177e-07
3.5085e-07
3.60746e-07
3.70869e-07
3.81222e-07
3.9181e-07
4.02637e-07
4.13706e-07
4.25023e-07
4.3659e-07
4.48413e-07
4.60495e-07
4.7284e-07
4.85452e-07
4.98337e-07
5.11498e-07
5.24939e-07
5.38664e-07
5.52679e-07
5.66986e-07
5.81592e-07
5.96499e-07
6.11712e-07
6.27236e-07
6.43075e-07
6.59233e-07
6.75715e-07
6.92525e-07
7.09667e-07
7.27146e-07
7.44966e-07
7.63132e-07
7.81647e-07
8.00516e-07
8.19744e-07
8.39334e-07
8.59291e-07
8.79619e-07
9.00322e-07
9.21405e-07
9.42871e-07
9.64724e-07
9.8697e-07
1.00961e-06
1.03265e-06
1.05609e-06
1.07995e-06
1.10421e-06
1.12888e-06
1.15398e-06
1.1795e-06
1.20544e-06
1.23181e-06
1.25862e-06
1.28586e-06
1.31354e-06
1.34166e-06
1.37022e-06
1.39923e-06
1.4287e-06
1.45862e-06
1.48899e-06
1.51982e-06
1.55111e-06
1.58287e-06
1.61509e-06
1.64778e-06
1.68094e-06
1.71456e-06
1.74866e-06
1.78324e-06
1.81829e-06
1.85381e-06
1.88982e-06
1.9263e-06
1.96326e-06
2.0007e-06
2.03861e-06
2.07701e-06
2.11589e-06
2.15525e-06
2.19509e-06
2.2354e-06
2.27619e-06
2.31746e-06
2.35921e-06
2.40143e-06
2.44412e-06
2.48728e-06
2.53092e-06
2.57502e-06
2.61958e-06
2.6646e-06
2.71009e-06
2.75603e-06
2.80242e-06
2.84926e-06
2.89655e-06
2.94427e-06
2.99244e-06
3.04103e-06
3.09005e-06
3.1395e-06
3.18936e-06
3.23963e-06
3.29031e-06
3.34139e-06
3.39287e-06
3.44472e-06
3.49697e-06
3.54958e-06
3.60256e-06
3.6559e-06
3.70958e-06
3.76362e-06
3.81798e-06
3.87267e-06
3.92768e-06
3.983e-06
4.03861e-06
4.09452e-06
4.1507e-06
4.20715e-06
4.26386e-06
4.32082e-06
4.37802e-06
4.43544e-06
4.49308e-06
4.55092e-06
4.60896e-06
4.66717e-06
4.72555e-06
4.78409e-06
4.84277e-06
4.90158e-06
4.9605e-06
5.01953e-06
5.07865e-06
5.13784e-06
5.1971e-06
5.2564e-06
5.31574e-06
5.3751e-06
5.43446e-06
5.49381e-06
5.55313e-06
5.61242e-06
5.67165e-06
5.73081e-06
5.78988e-06
5.84885e-06
5.9077e-06
5.96641e-06
6.02498e-06
6.08338e-06
6.14159e-06
6.19961e-06
6.25741e-06
6.31498e-06
6.3723e-06
6.42935e-06
6.48612e-06
6.54259e-06
6.59874e-06
6.65456e-06
6.71003e-06
6.76513e-06
6.81985e-06
6.87417e-06
6.92808e-06
6.98154e-06
7.03456e-06
7.08711e-06
7.13917e-06
7.19073e-06
7.24178e-06
7.29229e-06
7.34225e-06
7.39165e-06
7.44046e-06
7.48866e-06
7.53626e-06
7.58322e-06
7.62954e-06
7.6752e-06
7.72017e-06
7.76446e-06
7.80803e-06
7.85089e-06
7.89301e-06
7.93437e-06
7.97497e-06
8.01479e-06
8.05382e-06
8.09204e-06
8.12944e-06
8.16601e-06
8.20173e-06
8.2366e-06
8.27059e-06
8.3037e-06
8.33592e-06
8.36724e-06
8.39764e-06
8.42712e-06
8.45566e-06
8.48325e-06
8.5099e-06
8.53557e-06
8.56028e-06
8.58401e-06
8.60676e-06
8.62851e-06
8.64925e-06
8.66899e-06
8.68772e-06
8.70543e-06
8.72212e-06
8.73778e-06
8.75241e-06
8.76601e-06
8.77857e-06
8.7901e-06
8.80059e-06
8.81005e-06
8.81846e-06
8.82584e-06
8.83218e-06
8.8375e-06
8.84178e-06
8.84505e-06
8.84729e-06
8.84852e-06
8.84875e-06
8.84803e-06
8.84629e-06
8.84357e-06
8.83989e-06
8.83526e-06
8.82971e-06
8.82325e-06
8.81589e-06
8.80767e-06
8.7986e-06
8.78872e-06
8.77804e-06
8.7666e-06
8.75444e-06
8.74158e-06
8.72808e-06
8.71397e-06
8.6993e-06
8.68412e-06
8.66849e-06
8.65247e-06
8.63612e-06
8.61951e-06
8.60272e-06
8.58582e-06
8.56892e-06
8.55211e-06
8.53548e-06
8.51915e-06
8.50324e-06
8.48789e-06
8.47322e-06
8.45939e-06
8.44656e-06
8.43491e-06
8.42463e-06
8.41591e-06
8.40898e-06
8.4041e-06
8.40151e-06
2.99834e-11
9.60815e-11
1.68591e-10
2.47914e-10
3.34515e-10
4.28851e-10
5.31374e-10
6.42533e-10
7.62774e-10
8.92548e-10
1.03231e-09
1.18254e-09
1.3437e-09
1.51629e-09
1.7008e-09
1.89775e-09
2.10765e-09
2.33106e-09
2.56851e-09
2.82058e-09
3.08784e-09
3.37089e-09
3.67032e-09
3.98676e-09
4.32085e-09
4.67324e-09
5.04458e-09
5.43555e-09
5.84685e-09
6.27919e-09
6.73328e-09
7.20987e-09
7.7097e-09
8.23355e-09
8.78219e-09
9.35643e-09
9.95708e-09
1.0585e-08
1.1241e-08
1.19259e-08
1.26407e-08
1.33863e-08
1.41635e-08
1.49733e-08
1.58167e-08
1.66946e-08
1.7608e-08
1.8558e-08
1.95455e-08
2.05717e-08
2.16376e-08
2.27443e-08
2.38929e-08
2.50846e-08
2.63206e-08
2.76019e-08
2.89299e-08
3.03058e-08
3.17308e-08
3.32063e-08
3.47334e-08
3.63137e-08
3.79483e-08
3.96389e-08
4.13866e-08
4.31931e-08
4.50597e-08