/*--------------------------------*- C++ -*----------------------------------*\
  =========                 |
  \\      /  F ield         | OpenFOAM: The Open Source CFD Toolbox
   \\    /   O peration     | Website:  https://openfoam.org
    \\  /    A nd           | Version:  dev
     \\/     M anipulation  |
\*---------------------------------------------------------------------------*/
FoamFile
{
    format      ascii;
    class       volScalarField;
    location    "0.48";
    object      cov;
}
// * * * * * * * * * * * * * * * * * * * * * * * * * * * * * * * * * * * * * //

dimensions      [0 0 0 0 0 0 0];

internalField   uniform 0;

boundaryField
{
    frontAndBack
    {
        type            empty;
    }
    inlet
    {
        type            calculated;
        value           uniform 0;
    }
    outlet
    {
        type            calculated;
        value           uniform 0;
    }
    substrate
    {
        type            calculated;
        value           nonuniform List<scalar> 
400
(
0.723392
0.709436
0.699197
0.689838
0.680945
0.672481
0.664346
0.656453
0.648737
0.641155
0.633672
0.626261
0.618904
0.611584
0.604291
0.597014
0.589749
0.582492
0.575238
0.567987
0.560739
0.553493
0.54625
0.539012
0.53178
0.524556
0.517342
0.510141
0.502955
0.495786
0.488637
0.481511
0.474409
0.467335
0.46029
0.453278
0.4463
0.43936
0.432458
0.425598
0.418782
0.412011
0.405288
0.398614
0.391991
0.385422
0.378907
0.372449
0.366049
0.359708
0.353428
0.34721
0.341056
0.334966
0.328941
0.322983
0.317092
0.31127
0.305516
0.299833
0.294219
0.288677
0.283206
0.277807
0.27248
0.267225
0.262043
0.256935
0.251899
0.246936
0.242046
0.237229
0.232486
0.227815
0.223216
0.218691
0.214237
0.209855
0.205545
0.201305
0.197137
0.193038
0.189009
0.18505
0.181159
0.177337
0.173581
0.169893
0.166271
0.162715
0.159223
0.155796
0.152433
0.149132
0.145893
0.142716
0.139599
0.136542
0.133544
0.130604
0.127722
0.124896
0.122127
0.119412
0.116752
0.114145
0.11159
0.109088
0.106636
0.104235
0.101883
0.0995797
0.0973243
0.0951158
0.0929536
0.0908368
0.0887647
0.0867364
0.0847512
0.0828084
0.0809071
0.0790466
0.0772263
0.0754452
0.0737028
0.0719983
0.0703309
0.0687
0.0671049
0.0655448
0.0640192
0.0625272
0.0610684
0.0596419
0.0582473
0.0568837
0.0555507
0.0542476
0.0529737
0.0517286
0.0505115
0.049322
0.0481594
0.0470232
0.0459129
0.0448278
0.0437675
0.0427315
0.0417191
0.04073
0.0397636
0.0388195
0.0378971
0.036996
0.0361157
0.0352558
0.0344158
0.0335954
0.0327939
0.0320112
0.0312466
0.0304999
0.0297706
0.0290584
0.0283629
0.0276836
0.0270203
0.0263725
0.02574
0.0251223
0.0245192
0.0239303
0.0233553
0.0227939
0.0222457
0.0217105
0.021188
0.0206778
0.0201798
0.0196935
0.0192188
0.0187554
0.018303
0.0178614
0.0174302
0.0170094
0.0165986
0.0161976
0.0158061
0.015424
0.0150511
0.014687
0.0143317
0.0139848
0.0136463
0.0133159
0.0129934
0.0126787
0.0123715
0.0120716
0.011779
0.0114934
0.0112147
0.0109427
0.0106772
0.0104181
0.0101652
0.00991848
0.00967767
0.00944266
0.00921331
0.0089895
0.00877109
0.00855795
0.00834996
0.00814699
0.00794893
0.00775565
0.00756704
0.007383
0.0072034
0.00702816
0.00685715
0.00669028
0.00652745
0.00636857
0.00621354
0.00606226
0.00591464
0.00577061
0.00563007
0.00549293
0.00535913
0.00522857
0.00510117
0.00497687
0.00485559
0.00473725
0.00462178
0.00450912
0.0043992
0.00429194
0.00418729
0.00408519
0.00398556
0.00388836
0.00379352
0.00370099
0.00361071
0.00352262
0.00343668
0.00335283
0.00327101
0.00319119
0.00311331
0.00303733
0.0029632
0.00289087
0.0028203
0.00275145
0.00268428
0.00261874
0.0025548
0.00249241
0.00243155
0.00237217
0.00231424
0.00225772
0.00220257
0.00214877
0.00209628
0.00204507
0.00199511
0.00194637
0.00189881
0.00185241
0.00180715
0.00176299
0.00171991
0.00167787
0.00163686
0.00159686
0.00155783
0.00151975
0.00148259
0.00144635
0.00141099
0.00137649
0.00134284
0.00131
0.00127797
0.00124671
0.00121623
0.00118648
0.00115746
0.00112915
0.00110153
0.00107458
0.00104829
0.00102265
0.000997627
0.000973217
0.000949403
0.00092617
0.000903504
0.000881392
0.000859819
0.000838773
0.000818241
0.00079821
0.000778669
0.000759604
0.000741005
0.00072286
0.000705158
0.000687889
0.000671041
0.000654604
0.000638569
0.000622926
0.000607664
0.000592775
0.00057825
0.00056408
0.000550255
0.000536769
0.000523611
0.000510775
0.000498253
0.000486037
0.000474118
0.000462491
0.000451148
0.000440083
0.000429287
0.000418756
0.000408481
0.000398458
0.00038868
0.00037914
0.000369834
0.000360756
0.000351899
0.000343259
0.00033483
0.000326607
0.000318586
0.000310761
0.000303128
0.000295681
0.000288418
0.000281332
0.00027442
0.000267678
0.000261101
0.000254686
0.000248429
0.000242327
0.000236375
0.00023057
0.000224909
0.000219389
0.000214006
0.000208758
0.000203641
0.000198653
0.000193792
0.000189054
0.000184437
0.00017994
0.000175559
0.000171294
0.000167142
0.000163102
0.000159173
0.000155354
0.000151643
0.00014804
0.000144545
0.000141158
0.000137879
0.00013471
0.000131651
0.000128703
0.000125871
0.000123155
0.000120561
0.000118091
0.000115752
0.00011355
0.000111491
0.000109583
0.000107837
0.000106263
0.000104872
0.000103677
0.000102693
0.000101934
0.000101416
0.000101151
)
;
    }
    Wall
    {
        type            calculated;
        value           nonuniform List<scalar> 
400
(
0.723392
0.709436
0.699198
0.689839
0.680945
0.67248
0.664345
0.656451
0.648735
0.641153
0.633669
0.626259
0.618901
0.611582
0.604288
0.597012
0.589747
0.58249
0.575236
0.567986
0.560737
0.553491
0.546249
0.539011
0.531779
0.524555
0.517341
0.510141
0.502955
0.495786
0.488637
0.481511
0.474409
0.467335
0.460291
0.453279
0.446301
0.439361
0.432459
0.425599
0.418783
0.412012
0.405289
0.398615
0.391993
0.385423
0.378909
0.372451
0.366051
0.35971
0.35343
0.347212
0.341058
0.334967
0.328943
0.322985
0.317094
0.311272
0.305518
0.299835
0.294221
0.288679
0.283208
0.277809
0.272482
0.267227
0.262046
0.256937
0.251901
0.246938
0.242048
0.237231
0.232488
0.227817
0.223219
0.218693
0.214239
0.209857
0.205547
0.201307
0.197139
0.19304
0.189011
0.185052
0.181161
0.177338
0.173583
0.169895
0.166273
0.162717
0.159225
0.155798
0.152434
0.149133
0.145895
0.142717
0.1396
0.136543
0.133545
0.130606
0.127723
0.124898
0.122128
0.119413
0.116753
0.114146
0.111591
0.109089
0.106637
0.104236
0.101884
0.0995809
0.0973254
0.0951169
0.0929547
0.0908379
0.0887657
0.0867374
0.0847522
0.0828093
0.080908
0.0790476
0.0772272
0.0754461
0.0737037
0.0719991
0.0703317
0.0687008
0.0671057
0.0655456
0.0640199
0.062528
0.0610691
0.0596427
0.058248
0.0568844
0.0555514
0.0542483
0.0529744
0.0517292
0.0505122
0.0493226
0.04816
0.0470238
0.0459134
0.0448284
0.0437681
0.042732
0.0417197
0.0407305
0.0397642
0.03882
0.0378976
0.0369965
0.0361162
0.0352563
0.0344163
0.0335958
0.0327944
0.0320116
0.031247
0.0305003
0.029771
0.0290588
0.0283632
0.027684
0.0270206
0.0263729
0.0257403
0.0251227
0.0245195
0.0239306
0.0233556
0.0227942
0.022246
0.0217108
0.0211883
0.0206781
0.02018
0.0196938
0.0192191
0.0187557
0.0183033
0.0178616
0.0174305
0.0170096
0.0165988
0.0161978
0.0158063
0.0154242
0.0150513
0.0146872
0.0143319
0.0139851
0.0136465
0.0133161
0.0129936
0.0126789
0.0123716
0.0120718
0.0117792
0.0114936
0.0112149
0.0109428
0.0106773
0.0104183
0.0101654
0.00991863
0.00967781
0.0094428
0.00921345
0.00898964
0.00877123
0.00855809
0.00835009
0.00814712
0.00794905
0.00775577
0.00756716
0.00738312
0.00720352
0.00702827
0.00685726
0.00669039
0.00652756
0.00636867
0.00621364
0.00606236
0.00591474
0.00577071
0.00563016
0.00549303
0.00535922
0.00522865
0.00510126
0.00497696
0.00485567
0.00473733
0.00462186
0.0045092
0.00439927
0.00429201
0.00418737
0.00408526
0.00398563
0.00388843
0.00379359
0.00370106
0.00361077
0.00352268
0.00343674
0.00335289
0.00327107
0.00319125
0.00311337
0.00303738
0.00296325
0.00289092
0.00282035
0.0027515
0.00268432
0.00261879
0.00255484
0.00249246
0.0024316
0.00237221
0.00231428
0.00225776
0.00220261
0.00214881
0.00209632
0.00204511
0.00199515
0.0019464
0.00189885
0.00185245
0.00180718
0.00176302
0.00171994
0.0016779
0.0016369
0.00159689
0.00155785
0.00151977
0.00148262
0.00144638
0.00141102
0.00137652
0.00134286
0.00131003
0.00127799
0.00124674
0.00121625
0.0011865
0.00115748
0.00112917
0.00110155
0.0010746
0.00104831
0.00102267
0.000997646
0.000973235
0.00094942
0.000926187
0.000903521
0.000881408
0.000859835
0.000838789
0.000818257
0.000798225
0.000778683
0.000759618
0.000741019
0.000722874
0.000705172
0.000687902
0.000671053
0.000654617
0.000638581
0.000622937
0.000607676
0.000592786
0.000578261
0.00056409
0.000550266
0.000536779
0.000523621
0.000510785
0.000498262
0.000486046
0.000474127
0.0004625
0.000451157
0.000440091
0.000429295
0.000418763
0.000408489
0.000398465
0.000388687
0.000379147
0.000369841
0.000360762
0.000351905
0.000343265
0.000334836
0.000326613
0.000318592
0.000310767
0.000303133
0.000295687
0.000288423
0.000281337
0.000274425
0.000267682
0.000261106
0.000254691
0.000248434
0.000242331
0.000236379
0.000230574
0.000224913
0.000219393
0.00021401
0.000208761
0.000203645
0.000198657
0.000193795
0.000189057
0.00018444
0.000179942
0.000175562
0.000171297
0.000167145
0.000163105
0.000159176
0.000155356
0.000151645
0.000148042
0.000144547
0.00014116
0.000137881
0.000134712
0.000131653
0.000128705
0.000125873
0.000123157
0.000120562
0.000118093
0.000115754
0.000113551
0.000111492
0.000109585
0.000107839
0.000106265
0.000104874
0.000103679
0.000102695
0.000101936
0.000101417
0.000101153
)
;
    }
}


// ************************************************************************* //
