/*--------------------------------*- C++ -*----------------------------------*\
  =========                 |
  \\      /  F ield         | OpenFOAM: The Open Source CFD Toolbox
   \\    /   O peration     | Website:  https://openfoam.org
    \\  /    A nd           | Version:  dev
     \\/     M anipulation  |
\*---------------------------------------------------------------------------*/
FoamFile
{
    format      ascii;
    class       volScalarField;
    location    "0.48";
    object      Exp1;
}
// * * * * * * * * * * * * * * * * * * * * * * * * * * * * * * * * * * * * * //

dimensions      [0 0 0 0 0 0 0];

internalField   uniform 0;

boundaryField
{
    frontAndBack
    {
        type            empty;
    }
    inlet
    {
        type            calculated;
        value           uniform 0;
    }
    outlet
    {
        type            calculated;
        value           uniform 0;
    }
    substrate
    {
        type            calculated;
        value           nonuniform List<scalar> 
400
(
1.49204e-12
4.75215e-12
8.33866e-12
1.22364e-11
1.64478e-11
2.09872e-11
2.58689e-11
3.11076e-11
3.67197e-11
4.27234e-11
4.91376e-11
5.59824e-11
6.32784e-11
7.10472e-11
7.93105e-11
8.80905e-11
9.74101e-11
1.07292e-10
1.1776e-10
1.28837e-10
1.40547e-10
1.52916e-10
1.65966e-10
1.79725e-10
1.94216e-10
2.09467e-10
2.25503e-10
2.42352e-10
2.6004e-10
2.78597e-10
2.98049e-10
3.18428e-10
3.39761e-10
3.62079e-10
3.85414e-10
4.09796e-10
4.35258e-10
4.61832e-10
4.89551e-10
5.18451e-10
5.48565e-10
5.79929e-10
6.12579e-10
6.46553e-10
6.81888e-10
7.18622e-10
7.56796e-10
7.96448e-10
8.37621e-10
8.80356e-10
9.24697e-10
9.70686e-10
1.01837e-09
1.06779e-09
1.119e-09
1.17204e-09
1.22696e-09
1.28381e-09
1.34265e-09
1.40352e-09
1.46648e-09
1.53158e-09
1.59888e-09
1.66843e-09
1.74029e-09
1.81452e-09
1.89118e-09
1.97033e-09
2.05204e-09
2.13637e-09
2.22338e-09
2.31314e-09
2.40573e-09
2.5012e-09
2.59964e-09
2.70111e-09
2.80569e-09
2.91346e-09
3.02449e-09
3.13886e-09
3.25665e-09
3.37795e-09
3.50284e-09
3.63141e-09
3.76374e-09
3.89992e-09
4.04005e-09
4.18422e-09
4.33252e-09
4.48505e-09
4.6419e-09
4.80319e-09
4.96901e-09
5.13947e-09
5.31467e-09
5.49473e-09
5.67975e-09
5.86984e-09
6.06513e-09
6.26572e-09
6.47175e-09
6.68332e-09
6.90056e-09
7.1236e-09
7.35257e-09
7.5876e-09
7.82882e-09
8.07635e-09
8.33035e-09
8.59095e-09
8.85829e-09
9.13252e-09
9.41378e-09
9.70221e-09
9.99798e-09
1.03012e-08
1.06121e-08
1.09308e-08
1.12575e-08
1.15922e-08
1.19353e-08
1.22868e-08
1.26469e-08
1.30158e-08
1.33937e-08
1.37808e-08
1.41771e-08
1.4583e-08
1.49985e-08
1.5424e-08
1.58595e-08
1.63052e-08
1.67614e-08
1.72283e-08
1.7706e-08
1.81947e-08
1.86946e-08
1.9206e-08
1.97291e-08
2.0264e-08
2.0811e-08
2.13703e-08
2.1942e-08
2.25265e-08
2.31239e-08
2.37344e-08
2.43584e-08
2.49959e-08
2.56472e-08
2.63125e-08
2.69922e-08
2.76863e-08
2.83952e-08
2.9119e-08
2.9858e-08
3.06124e-08
3.13825e-08
3.21685e-08
3.29706e-08
3.37891e-08
3.46242e-08
3.54762e-08
3.63452e-08
3.72316e-08
3.81355e-08
3.90573e-08
3.99971e-08
4.09552e-08
4.19319e-08
4.29273e-08
4.39417e-08
4.49754e-08
4.60285e-08
4.71014e-08
4.81943e-08
4.93074e-08
5.04409e-08
5.15951e-08
5.27702e-08
5.39664e-08
5.5184e-08
5.64232e-08
5.76842e-08
5.89673e-08
6.02726e-08
6.16004e-08
6.29508e-08
6.43242e-08
6.57207e-08
6.71406e-08
6.85839e-08
7.0051e-08
7.1542e-08
7.30571e-08
7.45965e-08
7.61604e-08
7.77489e-08
7.93623e-08
8.10007e-08
8.26642e-08
8.43531e-08
8.60674e-08
8.78073e-08
8.9573e-08
9.13646e-08
9.31822e-08
9.5026e-08
9.6896e-08
9.87924e-08
1.00715e-07
1.02665e-07
1.04641e-07
1.06644e-07
1.08673e-07
1.1073e-07
1.12813e-07
1.14923e-07
1.17061e-07
1.19225e-07
1.21416e-07
1.23635e-07
1.2588e-07
1.28153e-07
1.30452e-07
1.32779e-07
1.35132e-07
1.37512e-07
1.3992e-07
1.42353e-07
1.44814e-07
1.47301e-07
1.49815e-07
1.52355e-07
1.54921e-07
1.57514e-07
1.60132e-07
1.62776e-07
1.65445e-07
1.6814e-07
1.70861e-07
1.73606e-07
1.76376e-07
1.7917e-07
1.81989e-07
1.84832e-07
1.87698e-07
1.90588e-07
1.93501e-07
1.96437e-07
1.99395e-07
2.02375e-07
2.05377e-07
2.08401e-07
2.11445e-07
2.1451e-07
2.17595e-07
2.207e-07
2.23824e-07
2.26967e-07
2.30129e-07
2.33308e-07
2.36505e-07
2.39718e-07
2.42948e-07
2.46194e-07
2.49455e-07
2.52731e-07
2.56021e-07
2.59324e-07
2.62641e-07
2.6597e-07
2.6931e-07
2.72662e-07
2.76023e-07
2.79395e-07
2.82776e-07
2.86165e-07
2.89562e-07
2.92965e-07
2.96375e-07
2.9979e-07
3.03211e-07
3.06635e-07
3.10062e-07
3.13492e-07
3.16923e-07
3.20355e-07
3.23787e-07
3.27219e-07
3.30649e-07
3.34076e-07
3.375e-07
3.4092e-07
3.44335e-07
3.47745e-07
3.51147e-07
3.54542e-07
3.57928e-07
3.61305e-07
3.64672e-07
3.68028e-07
3.71371e-07
3.74702e-07
3.78018e-07
3.8132e-07
3.84606e-07
3.87876e-07
3.91128e-07
3.94361e-07
3.97575e-07
4.00769e-07
4.03941e-07
4.07091e-07
4.10219e-07
4.13322e-07
4.164e-07
4.19452e-07
4.22478e-07
4.25476e-07
4.28445e-07
4.31385e-07
4.34294e-07
4.37172e-07
4.40018e-07
4.42831e-07
4.45611e-07
4.48355e-07
4.51064e-07
4.53736e-07
4.56371e-07
4.58968e-07
4.61526e-07
4.64044e-07
4.66522e-07
4.68959e-07
4.71353e-07
4.73705e-07
4.76014e-07
4.78278e-07
4.80497e-07
4.82671e-07
4.84799e-07
4.86879e-07
4.88913e-07
4.90898e-07
4.92835e-07
4.94723e-07
4.96561e-07
4.98349e-07
5.00087e-07
5.01774e-07
5.03409e-07
5.04993e-07
5.06525e-07
5.08004e-07
5.09431e-07
5.10805e-07
5.12127e-07
5.13396e-07
5.14611e-07
5.15774e-07
5.16883e-07
5.1794e-07
5.18944e-07
5.19896e-07
5.20796e-07
5.21643e-07
5.2244e-07
5.23186e-07
5.23881e-07
5.24528e-07
5.25125e-07
5.25675e-07
5.26177e-07
5.26634e-07
5.27047e-07
5.27416e-07
5.27743e-07
5.2803e-07
5.28278e-07
5.28489e-07
5.28665e-07
5.28808e-07
5.2892e-07
5.29004e-07
5.29062e-07
5.29096e-07
5.29109e-07
5.29105e-07
5.29085e-07
5.29052e-07
5.29011e-07
5.28963e-07
5.28912e-07
5.28861e-07
5.28812e-07
5.28769e-07
5.28734e-07
5.28709e-07
5.28696e-07
)
;
    }
    Wall
    {
        type            calculated;
        value           nonuniform List<scalar> 
400
(
1.49201e-12
4.75207e-12
8.33851e-12
1.22361e-11
1.64474e-11
2.09868e-11
2.58683e-11
3.11068e-11
3.67188e-11
4.27222e-11
4.91361e-11
5.59806e-11
6.32764e-11
7.10448e-11
7.93077e-11
8.80874e-11
9.74065e-11
1.07288e-10
1.17755e-10
1.28832e-10
1.40542e-10
1.5291e-10
1.6596e-10
1.79718e-10
1.94209e-10
2.09459e-10
2.25494e-10
2.42342e-10
2.6003e-10
2.78586e-10
2.98039e-10
3.18416e-10
3.39749e-10
3.62067e-10
3.85401e-10
4.09782e-10
4.35243e-10
4.61816e-10
4.89535e-10
5.18434e-10
5.48547e-10
5.7991e-10
6.1256e-10
6.46533e-10
6.81867e-10
7.186e-10
7.56772e-10
7.96424e-10
8.37596e-10
8.8033e-10
9.24669e-10
9.70657e-10
1.01834e-09
1.06776e-09
1.11896e-09
1.172e-09
1.22692e-09
1.28378e-09
1.34261e-09
1.40348e-09
1.46644e-09
1.53154e-09
1.59883e-09
1.66838e-09
1.74024e-09
1.81447e-09
1.89113e-09
1.97028e-09
2.05199e-09
2.13631e-09
2.22332e-09
2.31308e-09
2.40567e-09
2.50114e-09
2.59957e-09
2.70104e-09
2.80562e-09
2.91338e-09
3.02441e-09
3.13878e-09
3.25657e-09
3.37787e-09
3.50276e-09
3.63132e-09
3.76365e-09
3.89983e-09
4.03995e-09
4.18411e-09
4.33241e-09
4.48494e-09
4.64179e-09
4.80308e-09
4.96889e-09
5.13935e-09
5.31454e-09
5.49459e-09
5.67961e-09
5.8697e-09
6.06498e-09
6.26557e-09
6.47159e-09
6.68315e-09
6.90039e-09
7.12343e-09
7.3524e-09
7.58742e-09
7.82863e-09
8.07616e-09
8.33016e-09
8.59075e-09
8.85808e-09
9.1323e-09
9.41356e-09
9.70199e-09
9.99775e-09
1.0301e-08
1.06119e-08
1.09306e-08
1.12572e-08
1.1592e-08
1.1935e-08
1.22865e-08
1.26466e-08
1.30155e-08
1.33934e-08
1.37805e-08
1.41768e-08
1.45827e-08
1.49982e-08
1.54236e-08
1.58591e-08
1.63049e-08
1.67611e-08
1.72279e-08
1.77056e-08
1.81943e-08
1.86942e-08
1.92056e-08
1.97287e-08
2.02636e-08
2.08106e-08
2.13698e-08
2.19416e-08
2.2526e-08
2.31234e-08
2.37339e-08
2.43578e-08
2.49953e-08
2.56466e-08
2.6312e-08
2.69916e-08
2.76857e-08
2.83946e-08
2.91184e-08
2.98573e-08
3.06118e-08
3.13818e-08
3.21678e-08
3.29699e-08
3.37884e-08
3.46235e-08
3.54754e-08
3.63445e-08
3.72308e-08
3.81348e-08
3.90565e-08
3.99963e-08
4.09544e-08
4.1931e-08
4.29264e-08
4.39408e-08
4.49744e-08
4.60276e-08
4.71005e-08
4.81933e-08
4.93064e-08
5.04399e-08
5.1594e-08
5.27691e-08
5.39653e-08
5.51829e-08
5.64221e-08
5.7683e-08
5.89661e-08
6.02714e-08
6.15991e-08
6.29496e-08
6.43229e-08
6.57194e-08
6.71392e-08
6.85826e-08
7.00496e-08
7.15406e-08
7.30557e-08
7.4595e-08
7.61589e-08
7.77474e-08
7.93607e-08
8.09991e-08
8.26626e-08
8.43514e-08
8.60657e-08
8.78056e-08
8.95713e-08
9.13628e-08
9.31804e-08
9.50241e-08
9.68941e-08
9.87905e-08
1.00713e-07
1.02663e-07
1.04639e-07
1.06641e-07
1.08671e-07
1.10727e-07
1.12811e-07
1.14921e-07
1.17058e-07
1.19223e-07
1.21414e-07
1.23632e-07
1.25878e-07
1.2815e-07
1.3045e-07
1.32776e-07
1.3513e-07
1.3751e-07
1.39917e-07
1.42351e-07
1.44811e-07
1.47299e-07
1.49812e-07
1.52352e-07
1.54918e-07
1.57511e-07
1.60129e-07
1.62773e-07
1.65442e-07
1.68137e-07
1.70858e-07
1.73603e-07
1.76373e-07
1.79167e-07
1.81986e-07
1.84828e-07
1.87695e-07
1.90585e-07
1.93497e-07
1.96433e-07
1.99391e-07
2.02372e-07
2.05374e-07
2.08397e-07
2.11441e-07
2.14506e-07
2.17591e-07
2.20696e-07
2.2382e-07
2.26963e-07
2.30125e-07
2.33304e-07
2.36501e-07
2.39714e-07
2.42944e-07
2.4619e-07
2.49451e-07
2.52727e-07
2.56017e-07
2.5932e-07
2.62637e-07
2.65965e-07
2.69306e-07
2.72657e-07
2.76019e-07
2.79391e-07
2.82771e-07
2.8616e-07
2.89557e-07
2.9296e-07
2.9637e-07
2.99786e-07
3.03206e-07
3.0663e-07
3.10057e-07
3.13487e-07
3.16918e-07
3.2035e-07
3.23782e-07
3.27214e-07
3.30644e-07
3.34071e-07
3.37495e-07
3.40915e-07
3.4433e-07
3.47739e-07
3.51142e-07
3.54536e-07
3.57923e-07
3.613e-07
3.64666e-07
3.68022e-07
3.71366e-07
3.74696e-07
3.78013e-07
3.81314e-07
3.84601e-07
3.8787e-07
3.91122e-07
3.94355e-07
3.97569e-07
4.00763e-07
4.03935e-07
4.07086e-07
4.10213e-07
4.13316e-07
4.16394e-07
4.19446e-07
4.22472e-07
4.2547e-07
4.28439e-07
4.31379e-07
4.34288e-07
4.37167e-07
4.40013e-07
4.42826e-07
4.45605e-07
4.48349e-07
4.51058e-07
4.5373e-07
4.56365e-07
4.58962e-07
4.6152e-07
4.64039e-07
4.66516e-07
4.68953e-07
4.71348e-07
4.73699e-07
4.76008e-07
4.78272e-07
4.80491e-07
4.82665e-07
4.84793e-07
4.86874e-07
4.88907e-07
4.90893e-07
4.92829e-07
4.94717e-07
4.96556e-07
4.98344e-07
5.00081e-07
5.01768e-07
5.03403e-07
5.04987e-07
5.06519e-07
5.07998e-07
5.09425e-07
5.108e-07
5.12121e-07
5.1339e-07
5.14606e-07
5.15768e-07
5.16878e-07
5.17935e-07
5.18939e-07
5.19891e-07
5.2079e-07
5.21638e-07
5.22435e-07
5.23181e-07
5.23876e-07
5.24522e-07
5.2512e-07
5.2567e-07
5.26172e-07
5.26629e-07
5.27042e-07
5.27411e-07
5.27738e-07
5.28025e-07
5.28273e-07
5.28484e-07
5.2866e-07
5.28804e-07
5.28916e-07
5.29e-07
5.29058e-07
5.29092e-07
5.29105e-07
5.29101e-07
5.29081e-07
5.29049e-07
5.29007e-07
5.2896e-07
5.28909e-07
5.28858e-07
5.28809e-07
5.28767e-07
5.28732e-07
5.28708e-07
5.28694e-07
)
;
    }
}


// ************************************************************************* //
