/*--------------------------------*- C++ -*----------------------------------*\
  =========                 |
  \\      /  F ield         | OpenFOAM: The Open Source CFD Toolbox
   \\    /   O peration     | Website:  https://openfoam.org
    \\  /    A nd           | Version:  dev
     \\/     M anipulation  |
\*---------------------------------------------------------------------------*/
FoamFile
{
    format      ascii;
    class       volScalarField;
    location    "0.48";
    object      N1;
}
// * * * * * * * * * * * * * * * * * * * * * * * * * * * * * * * * * * * * * //

dimensions      [0 0 0 0 0 0 0];

internalField   nonuniform List<scalar> 
8000
(
1.13283e-11
3.60896e-11
6.33385e-11
9.29603e-11
1.24974e-10
1.5949e-10
1.96617e-10
2.36467e-10
2.79167e-10
3.24854e-10
3.73675e-10
4.25784e-10
4.81339e-10
5.40504e-10
6.03447e-10
6.70339e-10
7.41354e-10
8.16668e-10
8.9646e-10
9.80913e-10
1.07021e-09
1.16454e-09
1.26409e-09
1.36906e-09
1.47964e-09
1.59604e-09
1.71844e-09
1.84708e-09
1.98214e-09
2.12386e-09
2.27245e-09
2.42813e-09
2.59113e-09
2.76169e-09
2.94004e-09
3.12642e-09
3.32109e-09
3.52428e-09
3.73628e-09
3.95732e-09
4.18769e-09
4.42765e-09
4.67749e-09
4.93749e-09
5.20795e-09
5.48915e-09
5.78141e-09
6.08503e-09
6.40032e-09
6.72762e-09
7.06726e-09
7.41956e-09
7.78488e-09
8.16357e-09
8.55598e-09
8.96248e-09
9.38345e-09
9.81927e-09
1.02703e-08
1.0737e-08
1.12198e-08
1.1719e-08
1.22351e-08
1.27686e-08
1.33198e-08
1.38892e-08
1.44774e-08
1.50847e-08
1.57116e-08
1.63587e-08
1.70265e-08
1.77154e-08
1.8426e-08
1.91589e-08
1.99145e-08
2.06935e-08
2.14964e-08
2.23238e-08
2.31763e-08
2.40546e-08
2.49591e-08
2.58906e-08
2.68498e-08
2.78372e-08
2.88536e-08
2.98997e-08
3.0976e-08
3.20835e-08
3.32228e-08
3.43946e-08
3.55997e-08
3.68389e-08
3.81129e-08
3.94227e-08
4.07689e-08
4.21525e-08
4.35742e-08
4.50351e-08
4.65358e-08
4.80774e-08
4.96608e-08
5.12869e-08
5.29566e-08
5.46709e-08
5.64308e-08
5.82373e-08
6.00914e-08
6.19942e-08
6.39467e-08
6.59499e-08
6.80051e-08
7.01132e-08
7.22753e-08
7.44928e-08
7.67666e-08
7.9098e-08
8.14882e-08
8.39383e-08
8.64497e-08
8.90235e-08
9.16611e-08
9.43637e-08
9.71327e-08
9.99693e-08
1.02875e-07
1.05851e-07
1.08899e-07
1.12019e-07
1.15215e-07
1.18486e-07
1.21835e-07
1.25262e-07
1.2877e-07
1.3236e-07
1.36034e-07
1.39792e-07
1.43636e-07
1.47569e-07
1.51591e-07
1.55705e-07
1.59911e-07
1.64212e-07
1.68609e-07
1.73104e-07
1.77698e-07
1.82393e-07
1.87191e-07
1.92094e-07
1.97103e-07
2.0222e-07
2.07447e-07
2.12785e-07
2.18236e-07
2.23803e-07
2.29486e-07
2.35289e-07
2.41211e-07
2.47256e-07
2.53425e-07
2.5972e-07
2.66142e-07
2.72695e-07
2.79378e-07
2.86195e-07
2.93148e-07
3.00237e-07
3.07465e-07
3.14834e-07
3.22345e-07
3.3e-07
3.37802e-07
3.45752e-07
3.53852e-07
3.62104e-07
3.70509e-07
3.7907e-07
3.87788e-07
3.96665e-07
4.05703e-07
4.14903e-07
4.24268e-07
4.33798e-07
4.43497e-07
4.53365e-07
4.63404e-07
4.73617e-07
4.84003e-07
4.94566e-07
5.05307e-07
5.16227e-07
5.27328e-07
5.38612e-07
5.50079e-07
5.61732e-07
5.73572e-07
5.856e-07
5.97818e-07
6.10227e-07
6.22828e-07
6.35622e-07
6.48611e-07
6.61797e-07
6.75179e-07
6.88759e-07
7.02539e-07
7.16518e-07
7.30699e-07
7.45082e-07
7.59667e-07
7.74456e-07
7.8945e-07
8.04648e-07
8.20052e-07
8.35662e-07
8.51478e-07
8.67502e-07
8.83733e-07
9.00171e-07
9.16817e-07
9.33672e-07
9.50734e-07
9.68004e-07
9.85483e-07
1.00317e-06
1.02106e-06
1.03916e-06
1.05747e-06
1.07598e-06
1.0947e-06
1.11363e-06
1.13276e-06
1.15209e-06
1.17163e-06
1.19137e-06
1.2113e-06
1.23144e-06
1.25178e-06
1.27231e-06
1.29304e-06
1.31396e-06
1.33507e-06
1.35638e-06
1.37787e-06
1.39955e-06
1.42141e-06
1.44346e-06
1.46568e-06
1.48809e-06
1.51067e-06
1.53342e-06
1.55634e-06
1.57943e-06
1.60268e-06
1.6261e-06
1.64967e-06
1.6734e-06
1.69728e-06
1.72131e-06
1.74548e-06
1.7698e-06
1.79425e-06
1.81884e-06
1.84355e-06
1.8684e-06
1.89336e-06
1.91844e-06
1.94364e-06
1.96894e-06
1.99435e-06
2.01985e-06
2.04546e-06
2.07115e-06
2.09692e-06
2.12278e-06
2.14871e-06
2.17471e-06
2.20078e-06
2.2269e-06
2.25308e-06
2.27931e-06
2.30558e-06
2.33188e-06
2.35822e-06
2.38458e-06
2.41095e-06
2.43734e-06
2.46374e-06
2.49014e-06
2.51653e-06
2.54291e-06
2.56927e-06
2.59561e-06
2.62191e-06
2.64818e-06
2.6744e-06
2.70056e-06
2.72667e-06
2.75272e-06
2.77869e-06
2.80459e-06
2.83039e-06
2.85611e-06
2.88172e-06
2.90723e-06
2.93263e-06
2.9579e-06
2.98305e-06
3.00806e-06
3.03293e-06
3.05765e-06
3.08221e-06
3.10661e-06
3.13084e-06
3.15489e-06
3.17875e-06
3.20243e-06
3.2259e-06
3.24917e-06
3.27223e-06
3.29507e-06
3.31768e-06
3.34006e-06
3.36219e-06
3.38408e-06
3.40572e-06
3.42709e-06
3.4482e-06
3.46903e-06
3.48958e-06
3.50985e-06
3.52982e-06
3.5495e-06
3.56887e-06
3.58792e-06
3.60666e-06
3.62508e-06
3.64317e-06
3.66092e-06
3.67834e-06
3.69541e-06
3.71212e-06
3.72849e-06
3.74449e-06
3.76013e-06
3.7754e-06
3.7903e-06
3.80482e-06
3.81895e-06
3.83271e-06
3.84607e-06
3.85904e-06
3.87162e-06
3.8838e-06
3.89559e-06
3.90696e-06
3.91794e-06
3.92851e-06
3.93867e-06
3.94843e-06
3.95778e-06
3.96672e-06
3.97526e-06
3.98338e-06
3.99111e-06
3.99843e-06
4.00535e-06
4.01187e-06
4.01799e-06
4.02373e-06
4.02908e-06
4.03405e-06
4.03864e-06
4.04287e-06
4.04674e-06
4.05025e-06
4.05342e-06
4.05626e-06
4.05878e-06
4.06099e-06
4.06289e-06
4.06452e-06
4.06587e-06
4.06697e-06
4.06784e-06
4.06848e-06
4.06893e-06
4.06919e-06
4.06929e-06
4.06926e-06
4.0691e-06
4.06885e-06
4.06853e-06
4.06817e-06
4.06777e-06
4.06738e-06
4.06701e-06
4.06668e-06
4.06641e-06
4.06621e-06
4.06611e-06
1.10974e-11
3.55753e-11
6.25944e-11
9.21153e-11
1.24134e-10
1.58725e-10
1.95981e-10
2.36013e-10
2.78943e-10
3.24912e-10
3.74066e-10
4.26561e-10
4.8256e-10
5.42231e-10
6.05744e-10
6.73275e-10
7.45003e-10
8.21108e-10
9.01775e-10
9.87191e-10
1.07754e-09
1.17303e-09
1.27384e-09
1.38018e-09
1.49225e-09
1.61025e-09
1.73439e-09
1.8649e-09
2.00199e-09
2.14587e-09
2.29678e-09
2.45495e-09
2.62061e-09
2.79401e-09
2.97539e-09
3.165e-09
3.3631e-09
3.56995e-09
3.78581e-09
4.01096e-09
4.24568e-09
4.49024e-09
4.74493e-09
5.01006e-09
5.28593e-09
5.57283e-09
5.87109e-09
6.18102e-09
6.50296e-09
6.83723e-09
7.18419e-09
7.54417e-09
7.91754e-09
8.30465e-09
8.70589e-09
9.12162e-09
9.55224e-09
9.99814e-09
1.04597e-08
1.09374e-08
1.14316e-08
1.19428e-08
1.24714e-08
1.30178e-08
1.35825e-08
1.4166e-08
1.47687e-08
1.53912e-08
1.60339e-08
1.66974e-08
1.73821e-08
1.80887e-08
1.88176e-08
1.95694e-08
2.03447e-08
2.11441e-08
2.19681e-08
2.28173e-08
2.36925e-08
2.45941e-08
2.55229e-08
2.64794e-08
2.74645e-08
2.84787e-08
2.95227e-08
3.05973e-08
3.17032e-08
3.28411e-08
3.40117e-08
3.5216e-08
3.64545e-08
3.77282e-08
3.90379e-08
4.03843e-08
4.17683e-08
4.31908e-08
4.46527e-08
4.61549e-08
4.76982e-08
4.92836e-08
5.09121e-08
5.25846e-08
5.43021e-08
5.60656e-08
5.7876e-08
5.97346e-08
6.16422e-08
6.35999e-08
6.56089e-08
6.76702e-08
6.9785e-08
7.19544e-08
7.41796e-08
7.64617e-08
7.8802e-08
8.12016e-08
8.36618e-08
8.61838e-08
8.8769e-08
9.14185e-08
9.41338e-08
9.6916e-08
9.97667e-08
1.02687e-07
1.05679e-07
1.08743e-07
1.11881e-07
1.15094e-07
1.18384e-07
1.21753e-07
1.25201e-07
1.28731e-07
1.32344e-07
1.36041e-07
1.39824e-07
1.43694e-07
1.47654e-07
1.51704e-07
1.55847e-07
1.60084e-07
1.64416e-07
1.68846e-07
1.73375e-07
1.78005e-07
1.82738e-07
1.87574e-07
1.92517e-07
1.97567e-07
2.02727e-07
2.07999e-07
2.13383e-07
2.18883e-07
2.24499e-07
2.30234e-07
2.3609e-07
2.42067e-07
2.48169e-07
2.54397e-07
2.60753e-07
2.67239e-07
2.73857e-07
2.80608e-07
2.87495e-07
2.94519e-07
3.01683e-07
3.08988e-07
3.16436e-07
3.24029e-07
3.3177e-07
3.39659e-07
3.47699e-07
3.55891e-07
3.64239e-07
3.72742e-07
3.81405e-07
3.90227e-07
3.99212e-07
4.0836e-07
4.17675e-07
4.27157e-07
4.36808e-07
4.46631e-07
4.56627e-07
4.66798e-07
4.77146e-07
4.87672e-07
4.98377e-07
5.09265e-07
5.20336e-07
5.31592e-07
5.43035e-07
5.54666e-07
5.66486e-07
5.78498e-07
5.90703e-07
6.03102e-07
6.15697e-07
6.28488e-07
6.41478e-07
6.54668e-07
6.68059e-07
6.81651e-07
6.95447e-07
7.09448e-07
7.23654e-07
7.38066e-07
7.52686e-07
7.67514e-07
7.82552e-07
7.978e-07
8.13258e-07
8.28928e-07
8.4481e-07
8.60905e-07
8.77213e-07
8.93735e-07
9.10471e-07
9.27421e-07
9.44585e-07
9.61964e-07
9.79558e-07
9.97366e-07
1.01539e-06
1.03363e-06
1.05208e-06
1.07075e-06
1.08962e-06
1.10872e-06
1.12802e-06
1.14754e-06
1.16727e-06
1.18721e-06
1.20735e-06
1.22771e-06
1.24827e-06
1.26904e-06
1.29001e-06
1.31119e-06
1.33257e-06
1.35415e-06
1.37593e-06
1.3979e-06
1.42007e-06
1.44243e-06
1.46498e-06
1.48772e-06
1.51065e-06
1.53376e-06
1.55705e-06
1.58052e-06
1.60417e-06
1.62798e-06
1.65197e-06
1.67613e-06
1.70045e-06
1.72493e-06
1.74956e-06
1.77435e-06
1.79929e-06
1.82438e-06
1.84961e-06
1.87498e-06
1.90048e-06
1.92611e-06
1.95187e-06
1.97775e-06
2.00374e-06
2.02985e-06
2.05607e-06
2.08239e-06
2.10881e-06
2.13532e-06
2.16192e-06
2.1886e-06
2.21536e-06
2.2422e-06
2.2691e-06
2.29606e-06
2.32307e-06
2.35014e-06
2.37725e-06
2.4044e-06
2.43158e-06
2.45879e-06
2.48601e-06
2.51325e-06
2.5405e-06
2.56775e-06
2.59499e-06
2.62222e-06
2.64944e-06
2.67662e-06
2.70378e-06
2.73089e-06
2.75796e-06
2.78498e-06
2.81193e-06
2.83882e-06
2.86564e-06
2.89237e-06
2.91902e-06
2.94557e-06
2.97202e-06
2.99836e-06
3.02459e-06
3.05068e-06
3.07665e-06
3.10248e-06
3.12816e-06
3.15369e-06
3.17906e-06
3.20426e-06
3.22928e-06
3.25413e-06
3.27878e-06
3.30323e-06
3.32748e-06
3.35152e-06
3.37534e-06
3.39893e-06
3.42229e-06
3.44541e-06
3.46828e-06
3.4909e-06
3.51325e-06
3.53534e-06
3.55715e-06
3.57868e-06
3.59992e-06
3.62086e-06
3.64151e-06
3.66184e-06
3.68186e-06
3.70156e-06
3.72093e-06
3.73997e-06
3.75867e-06
3.77703e-06
3.79503e-06
3.81268e-06
3.82997e-06
3.84689e-06
3.86345e-06
3.87962e-06
3.89542e-06
3.91083e-06
3.92585e-06
3.94047e-06
3.95471e-06
3.96853e-06
3.98196e-06
3.99498e-06
4.00759e-06
4.01979e-06
4.03157e-06
4.04293e-06
4.05388e-06
4.06441e-06
4.07452e-06
4.0842e-06
4.09347e-06
4.10231e-06
4.11074e-06
4.11875e-06
4.12634e-06
4.13352e-06
4.14028e-06
4.14664e-06
4.1526e-06
4.15816e-06
4.16332e-06
4.1681e-06
4.17249e-06
4.17652e-06
4.18018e-06
4.18348e-06
4.18644e-06
4.18907e-06
4.19137e-06
4.19337e-06
4.19507e-06
4.19649e-06
4.19765e-06
4.19856e-06
4.19925e-06
4.19972e-06
4.20001e-06
4.20013e-06
4.20011e-06
4.19996e-06
4.19971e-06
4.19939e-06
4.19901e-06
4.19861e-06
4.1982e-06
4.19782e-06
4.19747e-06
4.19719e-06
4.19699e-06
4.19689e-06
1.08897e-11
3.49359e-11
6.14541e-11
9.05214e-11
1.22179e-10
1.56489e-10
1.93532e-10
2.33411e-10
2.76242e-10
3.22162e-10
3.71317e-10
4.23862e-10
4.79961e-10
5.39783e-10
6.035e-10
6.71291e-10
7.43337e-10
8.19821e-10
9.00932e-10
9.8686e-10
1.0778e-09
1.17394e-09
1.2755e-09
1.38266e-09
1.49565e-09
1.61466e-09
1.73992e-09
1.87165e-09
2.01007e-09
2.1554e-09
2.30789e-09
2.46777e-09
2.63528e-09
2.81066e-09
2.99418e-09
3.18609e-09
3.38665e-09
3.59614e-09
3.81482e-09
4.04297e-09
4.28088e-09
4.52885e-09
4.78716e-09
5.05613e-09
5.33606e-09
5.62728e-09
5.93009e-09
6.24484e-09
6.57185e-09
6.91148e-09
7.26407e-09
7.62999e-09
8.0096e-09
8.40327e-09
8.81139e-09
9.23434e-09
9.67252e-09
1.01264e-08
1.05962e-08
1.10826e-08
1.15859e-08
1.21065e-08
1.2645e-08
1.32017e-08
1.37772e-08
1.43719e-08
1.49863e-08
1.5621e-08
1.62763e-08
1.6953e-08
1.76514e-08
1.83722e-08
1.91159e-08
1.98831e-08
2.06743e-08
2.14902e-08
2.23313e-08
2.31984e-08
2.40919e-08
2.50126e-08
2.59611e-08
2.69381e-08
2.79443e-08
2.89804e-08
3.00471e-08
3.1145e-08
3.22751e-08
3.3438e-08
3.46345e-08
3.58654e-08
3.71314e-08
3.84335e-08
3.97725e-08
4.11492e-08
4.25644e-08
4.40191e-08
4.55141e-08
4.70504e-08
4.8629e-08
5.02507e-08
5.19165e-08
5.36275e-08
5.53846e-08
5.71889e-08
5.90413e-08
6.0943e-08
6.2895e-08
6.48985e-08
6.69545e-08
6.90641e-08
7.12286e-08
7.34491e-08
7.57268e-08
7.80628e-08
8.04585e-08
8.2915e-08
8.54337e-08
8.80158e-08
9.06626e-08
9.33754e-08
9.61556e-08
9.90046e-08
1.01924e-07
1.04914e-07
1.07978e-07
1.11116e-07
1.14329e-07
1.17621e-07
1.2099e-07
1.24441e-07
1.27973e-07
1.31588e-07
1.35289e-07
1.39076e-07
1.42951e-07
1.46916e-07
1.50972e-07
1.55122e-07
1.59366e-07
1.63707e-07
1.68146e-07
1.72685e-07
1.77325e-07
1.82069e-07
1.86918e-07
1.91874e-07
1.96939e-07
2.02114e-07
2.07402e-07
2.12804e-07
2.18322e-07
2.23958e-07
2.29714e-07
2.35591e-07
2.41592e-07
2.47719e-07
2.53973e-07
2.60356e-07
2.66871e-07
2.73519e-07
2.80302e-07
2.87223e-07
2.94282e-07
3.01483e-07
3.08826e-07
3.16315e-07
3.2395e-07
3.31734e-07
3.39669e-07
3.47757e-07
3.56e-07
3.64399e-07
3.72958e-07
3.81676e-07
3.90558e-07
3.99604e-07
4.08816e-07
4.18197e-07
4.27747e-07
4.3747e-07
4.47367e-07
4.5744e-07
4.67691e-07
4.78121e-07
4.88732e-07
4.99527e-07
5.10506e-07
5.21672e-07
5.33026e-07
5.4457e-07
5.56306e-07
5.68235e-07
5.80359e-07
5.9268e-07
6.05198e-07
6.17916e-07
6.30835e-07
6.43956e-07
6.57281e-07
6.70811e-07
6.84547e-07
6.98491e-07
7.12644e-07
7.27007e-07
7.41581e-07
7.56367e-07
7.71366e-07
7.8658e-07
8.02008e-07
8.17652e-07
8.33513e-07
8.49591e-07
8.65887e-07
8.82402e-07
8.99136e-07
9.16089e-07
9.33263e-07
9.50656e-07
9.6827e-07
9.86105e-07
1.00416e-06
1.02244e-06
1.04093e-06
1.05965e-06
1.07859e-06
1.09775e-06
1.11712e-06
1.13672e-06
1.15653e-06
1.17657e-06
1.19682e-06
1.21728e-06
1.23797e-06
1.25886e-06
1.27997e-06
1.30129e-06
1.32282e-06
1.34456e-06
1.36651e-06
1.38867e-06
1.41102e-06
1.43358e-06
1.45635e-06
1.47931e-06
1.50246e-06
1.52581e-06
1.54935e-06
1.57309e-06
1.597e-06
1.6211e-06
1.64539e-06
1.66985e-06
1.69448e-06
1.71929e-06
1.74427e-06
1.76941e-06
1.79471e-06
1.82018e-06
1.84579e-06
1.87156e-06
1.89747e-06
1.92353e-06
1.94973e-06
1.97606e-06
2.00252e-06
2.02911e-06
2.05581e-06
2.08264e-06
2.10957e-06
2.13662e-06
2.16376e-06
2.191e-06
2.21833e-06
2.24575e-06
2.27325e-06
2.30083e-06
2.32847e-06
2.35618e-06
2.38394e-06
2.41176e-06
2.43962e-06
2.46753e-06
2.49547e-06
2.52343e-06
2.55142e-06
2.57942e-06
2.60743e-06
2.63544e-06
2.66345e-06
2.69144e-06
2.71942e-06
2.74737e-06
2.77529e-06
2.80317e-06
2.831e-06
2.85878e-06
2.88651e-06
2.91416e-06
2.94174e-06
2.96923e-06
2.99664e-06
3.02395e-06
3.05115e-06
3.07825e-06
3.10522e-06
3.13207e-06
3.15878e-06
3.18536e-06
3.21178e-06
3.23805e-06
3.26415e-06
3.29008e-06
3.31583e-06
3.3414e-06
3.36677e-06
3.39193e-06
3.41689e-06
3.44164e-06
3.46615e-06
3.49044e-06
3.51449e-06
3.53829e-06
3.56184e-06
3.58512e-06
3.60814e-06
3.63089e-06
3.65335e-06
3.67552e-06
3.6974e-06
3.71897e-06
3.74024e-06
3.76119e-06
3.78182e-06
3.80211e-06
3.82208e-06
3.8417e-06
3.86097e-06
3.87989e-06
3.89845e-06
3.91665e-06
3.93447e-06
3.95192e-06
3.96899e-06
3.98568e-06
4.00197e-06
4.01787e-06
4.03337e-06
4.04846e-06
4.06315e-06
4.07743e-06
4.09129e-06
4.10473e-06
4.11775e-06
4.13035e-06
4.14252e-06
4.15427e-06
4.16558e-06
4.17647e-06
4.18692e-06
4.19694e-06
4.20653e-06
4.21568e-06
4.2244e-06
4.2327e-06
4.24056e-06
4.248e-06
4.25502e-06
4.26162e-06
4.2678e-06
4.27357e-06
4.27893e-06
4.2839e-06
4.28848e-06
4.29267e-06
4.29648e-06
4.29993e-06
4.30302e-06
4.30577e-06
4.30819e-06
4.31028e-06
4.31208e-06
4.31358e-06
4.31481e-06
4.31578e-06
4.31652e-06
4.31704e-06
4.31736e-06
4.31751e-06
4.3175e-06
4.31737e-06
4.31713e-06
4.31681e-06
4.31643e-06
4.31602e-06
4.3156e-06
4.31521e-06
4.31485e-06
4.31456e-06
4.31435e-06
4.31424e-06
1.06831e-11
3.4266e-11
6.02331e-11
8.87183e-11
1.19818e-10
1.53613e-10
1.90194e-10
2.29662e-10
2.72137e-10
3.17751e-10
3.66648e-10
4.18982e-10
4.74916e-10
5.34619e-10
5.98263e-10
6.66028e-10
7.38096e-10
8.14651e-10
8.95883e-10
9.81986e-10
1.07315e-09
1.16959e-09
1.27149e-09
1.37907e-09
1.49254e-09
1.61212e-09
1.73801e-09
1.87046e-09
2.00968e-09
2.15591e-09
2.30939e-09
2.47036e-09
2.63907e-09
2.81577e-09
3.00072e-09
3.19419e-09
3.39644e-09
3.60774e-09
3.82839e-09
4.05866e-09
4.29885e-09
4.54926e-09
4.81018e-09
5.08194e-09
5.36484e-09
5.65922e-09
5.9654e-09
6.28372e-09
6.61452e-09
6.95817e-09
7.315e-09
7.6854e-09
8.06974e-09
8.46841e-09
8.88178e-09
9.31026e-09
9.75427e-09
1.02142e-08
1.06905e-08
1.11836e-08
1.16939e-08
1.22219e-08
1.27681e-08
1.33329e-08
1.39168e-08
1.45204e-08
1.5144e-08
1.57882e-08
1.64536e-08
1.71407e-08
1.785e-08
1.85821e-08
1.93375e-08
2.01169e-08
2.09208e-08
2.17499e-08
2.26047e-08
2.3486e-08
2.43943e-08
2.53303e-08
2.62946e-08
2.72881e-08
2.83113e-08
2.9365e-08
3.04499e-08
3.15668e-08
3.27164e-08
3.38995e-08
3.51169e-08
3.63693e-08
3.76577e-08
3.89829e-08
4.03456e-08
4.17468e-08
4.31874e-08
4.46683e-08
4.61903e-08
4.77545e-08
4.93617e-08
5.1013e-08
5.27094e-08
5.44518e-08
5.62413e-08
5.80789e-08
5.99657e-08
6.19027e-08
6.38911e-08
6.59321e-08
6.80266e-08
7.01759e-08
7.23812e-08
7.46436e-08
7.69644e-08
7.93448e-08
8.1786e-08
8.42894e-08
8.68562e-08
8.94877e-08
9.21853e-08
9.49503e-08
9.77841e-08
1.00688e-07
1.03664e-07
1.06712e-07
1.09835e-07
1.13034e-07
1.16311e-07
1.19666e-07
1.23102e-07
1.26619e-07
1.30221e-07
1.33907e-07
1.37681e-07
1.41542e-07
1.45494e-07
1.49537e-07
1.53674e-07
1.57906e-07
1.62234e-07
1.66662e-07
1.71189e-07
1.75818e-07
1.80551e-07
1.8539e-07
1.90336e-07
1.95392e-07
2.00558e-07
2.05837e-07
2.11231e-07
2.16742e-07
2.22372e-07
2.28122e-07
2.33994e-07
2.3999e-07
2.46113e-07
2.52364e-07
2.58746e-07
2.65259e-07
2.71907e-07
2.7869e-07
2.85612e-07
2.92674e-07
2.99878e-07
3.07226e-07
3.1472e-07
3.22363e-07
3.30155e-07
3.381e-07
3.46198e-07
3.54453e-07
3.62866e-07
3.7144e-07
3.80175e-07
3.89075e-07
3.98141e-07
4.07374e-07
4.16778e-07
4.26354e-07
4.36105e-07
4.46031e-07
4.56134e-07
4.66418e-07
4.76883e-07
4.87532e-07
4.98366e-07
5.09388e-07
5.20598e-07
5.31999e-07
5.43593e-07
5.55381e-07
5.67365e-07
5.79546e-07
5.91927e-07
6.04509e-07
6.17293e-07
6.30281e-07
6.43475e-07
6.56876e-07
6.70485e-07
6.84304e-07
6.98334e-07
7.12577e-07
7.27033e-07
7.41704e-07
7.56591e-07
7.71695e-07
7.87017e-07
8.02558e-07
8.18319e-07
8.34301e-07
8.50505e-07
8.66931e-07
8.83581e-07
9.00454e-07
9.17551e-07
9.34874e-07
9.52421e-07
9.70194e-07
9.88192e-07
1.00642e-06
1.02487e-06
1.04354e-06
1.06245e-06
1.08158e-06
1.10093e-06
1.12051e-06
1.14031e-06
1.16034e-06
1.18059e-06
1.20107e-06
1.22177e-06
1.24269e-06
1.26383e-06
1.28519e-06
1.30677e-06
1.32857e-06
1.35058e-06
1.3728e-06
1.39524e-06
1.41789e-06
1.44075e-06
1.46382e-06
1.48709e-06
1.51057e-06
1.53425e-06
1.55813e-06
1.5822e-06
1.60647e-06
1.63093e-06
1.65558e-06
1.68041e-06
1.70543e-06
1.73063e-06
1.756e-06
1.78155e-06
1.80726e-06
1.83315e-06
1.8592e-06
1.8854e-06
1.91176e-06
1.93827e-06
1.96493e-06
1.99173e-06
2.01867e-06
2.04575e-06
2.07295e-06
2.10028e-06
2.12773e-06
2.15529e-06
2.18297e-06
2.21075e-06
2.23862e-06
2.2666e-06
2.29466e-06
2.32281e-06
2.35103e-06
2.37933e-06
2.40769e-06
2.43611e-06
2.46459e-06
2.49311e-06
2.52168e-06
2.55028e-06
2.57892e-06
2.60757e-06
2.63625e-06
2.66493e-06
2.69361e-06
2.72229e-06
2.75096e-06
2.77962e-06
2.80824e-06
2.83684e-06
2.8654e-06
2.89391e-06
2.92237e-06
2.95077e-06
2.9791e-06
3.00735e-06
3.03552e-06
3.0636e-06
3.09159e-06
3.11946e-06
3.14723e-06
3.17487e-06
3.20239e-06
3.22977e-06
3.25701e-06
3.28409e-06
3.31102e-06
3.33778e-06
3.36436e-06
3.39076e-06
3.41697e-06
3.44299e-06
3.4688e-06
3.49439e-06
3.51977e-06
3.54492e-06
3.56983e-06
3.5945e-06
3.61891e-06
3.64307e-06
3.66697e-06
3.69059e-06
3.71393e-06
3.73698e-06
3.75974e-06
3.78219e-06
3.80434e-06
3.82617e-06
3.84768e-06
3.86886e-06
3.8897e-06
3.9102e-06
3.93036e-06
3.95016e-06
3.96959e-06
3.98866e-06
4.00736e-06
4.02568e-06
4.04362e-06
4.06117e-06
4.07832e-06
4.09507e-06
4.11142e-06
4.12737e-06
4.14289e-06
4.15801e-06
4.1727e-06
4.18697e-06
4.20081e-06
4.21422e-06
4.22719e-06
4.23973e-06
4.25184e-06
4.2635e-06
4.27472e-06
4.2855e-06
4.29584e-06
4.30573e-06
4.31519e-06
4.3242e-06
4.33276e-06
4.34089e-06
4.34859e-06
4.35585e-06
4.36268e-06
4.36908e-06
4.37506e-06
4.38063e-06
4.38579e-06
4.39054e-06
4.3949e-06
4.39887e-06
4.40247e-06
4.4057e-06
4.40857e-06
4.4111e-06
4.41331e-06
4.41519e-06
4.41678e-06
4.41809e-06
4.41913e-06
4.41993e-06
4.4205e-06
4.42086e-06
4.42104e-06
4.42106e-06
4.42095e-06
4.42072e-06
4.4204e-06
4.42003e-06
4.41961e-06
4.41919e-06
4.41878e-06
4.41842e-06
4.41811e-06
4.41789e-06
4.41778e-06
1.04881e-11
3.36303e-11
5.90763e-11
8.69737e-11
1.17455e-10
1.50632e-10
1.86616e-10
2.25522e-10
2.67475e-10
3.12611e-10
3.61074e-10
4.13019e-10
4.68608e-10
5.28007e-10
5.9139e-10
6.58933e-10
7.30819e-10
8.07233e-10
8.88364e-10
9.74407e-10
1.06556e-09
1.16202e-09
1.264e-09
1.3717e-09
1.48535e-09
1.60515e-09
1.73133e-09
1.86413e-09
2.00376e-09
2.15048e-09
2.30451e-09
2.46612e-09
2.63554e-09
2.81305e-09
2.9989e-09
3.19336e-09
3.3967e-09
3.60921e-09
3.83117e-09
4.06287e-09
4.30461e-09
4.5567e-09
4.81944e-09
5.09315e-09
5.37816e-09
5.67479e-09
5.98338e-09
6.30428e-09
6.63783e-09
6.9844e-09
7.34436e-09
7.71806e-09
8.10591e-09
8.50828e-09
8.92557e-09
9.3582e-09
9.80658e-09
1.02711e-08
1.07523e-08
1.12505e-08
1.17662e-08
1.22998e-08
1.28519e-08
1.34229e-08
1.40133e-08
1.46236e-08
1.52543e-08
1.5906e-08
1.65791e-08
1.72743e-08
1.7992e-08
1.87329e-08
1.94975e-08
2.02865e-08
2.11003e-08
2.19397e-08
2.28053e-08
2.36978e-08
2.46177e-08
2.55657e-08
2.65426e-08
2.7549e-08
2.85857e-08
2.96534e-08
3.07527e-08
3.18846e-08
3.30497e-08
3.42488e-08
3.54828e-08
3.67525e-08
3.80586e-08
3.94022e-08
4.07839e-08
4.22047e-08
4.36656e-08
4.51674e-08
4.6711e-08
4.82975e-08
4.99277e-08
5.16027e-08
5.33235e-08
5.50912e-08
5.69067e-08
5.87711e-08
6.06855e-08
6.2651e-08
6.46687e-08
6.67398e-08
6.88654e-08
7.10467e-08
7.32849e-08
7.55811e-08
7.79368e-08
8.0353e-08
8.28311e-08
8.53723e-08
8.79781e-08
9.06496e-08
9.33883e-08
9.61956e-08
9.90728e-08
1.02021e-07
1.05043e-07
1.08138e-07
1.1131e-07
1.14558e-07
1.17885e-07
1.21293e-07
1.24782e-07
1.28355e-07
1.32013e-07
1.35757e-07
1.3959e-07
1.43512e-07
1.47526e-07
1.51633e-07
1.55836e-07
1.60135e-07
1.64532e-07
1.6903e-07
1.73629e-07
1.78332e-07
1.83141e-07
1.88058e-07
1.93083e-07
1.9822e-07
2.0347e-07
2.08834e-07
2.14315e-07
2.19915e-07
2.25636e-07
2.31479e-07
2.37447e-07
2.43542e-07
2.49764e-07
2.56118e-07
2.62603e-07
2.69223e-07
2.7598e-07
2.82875e-07
2.89911e-07
2.97089e-07
3.04412e-07
3.11882e-07
3.195e-07
3.27269e-07
3.35191e-07
3.43268e-07
3.51502e-07
3.59895e-07
3.68448e-07
3.77165e-07
3.86047e-07
3.95096e-07
4.04314e-07
4.13703e-07
4.23266e-07
4.33004e-07
4.42919e-07
4.53013e-07
4.63288e-07
4.73746e-07
4.84389e-07
4.95219e-07
5.06238e-07
5.17448e-07
5.2885e-07
5.40446e-07
5.52239e-07
5.64229e-07
5.7642e-07
5.88811e-07
6.01405e-07
6.14205e-07
6.2721e-07
6.40423e-07
6.53846e-07
6.6748e-07
6.81326e-07
6.95386e-07
7.09661e-07
7.24152e-07
7.38861e-07
7.53789e-07
7.68938e-07
7.84307e-07
7.99899e-07
8.15715e-07
8.31754e-07
8.48019e-07
8.6451e-07
8.81228e-07
8.98173e-07
9.15346e-07
9.32749e-07
9.5038e-07
9.68241e-07
9.86332e-07
1.00465e-06
1.02321e-06
1.04199e-06
1.061e-06
1.08024e-06
1.09972e-06
1.11942e-06
1.13936e-06
1.15952e-06
1.17991e-06
1.20054e-06
1.22139e-06
1.24246e-06
1.26376e-06
1.28529e-06
1.30705e-06
1.32902e-06
1.35122e-06
1.37364e-06
1.39627e-06
1.41913e-06
1.4422e-06
1.46548e-06
1.48898e-06
1.51269e-06
1.5366e-06
1.56072e-06
1.58505e-06
1.60957e-06
1.6343e-06
1.65922e-06
1.68433e-06
1.70963e-06
1.73512e-06
1.7608e-06
1.78665e-06
1.81268e-06
1.83889e-06
1.86527e-06
1.89181e-06
1.91852e-06
1.94539e-06
1.97241e-06
1.99958e-06
2.0269e-06
2.05436e-06
2.08196e-06
2.10969e-06
2.13755e-06
2.16553e-06
2.19363e-06
2.22185e-06
2.25017e-06
2.27859e-06
2.30712e-06
2.33573e-06
2.36443e-06
2.39321e-06
2.42207e-06
2.451e-06
2.47998e-06
2.50903e-06
2.53812e-06
2.56726e-06
2.59644e-06
2.62565e-06
2.65488e-06
2.68413e-06
2.71339e-06
2.74266e-06
2.77192e-06
2.80117e-06
2.83041e-06
2.85962e-06
2.88881e-06
2.91795e-06
2.94705e-06
2.97609e-06
3.00508e-06
3.03399e-06
3.06283e-06
3.09159e-06
3.12026e-06
3.14883e-06
3.17729e-06
3.20564e-06
3.23387e-06
3.26197e-06
3.28993e-06
3.31774e-06
3.34541e-06
3.37291e-06
3.40024e-06
3.4274e-06
3.45437e-06
3.48115e-06
3.50772e-06
3.5341e-06
3.56025e-06
3.58618e-06
3.61188e-06
3.63734e-06
3.66256e-06
3.68751e-06
3.71221e-06
3.73664e-06
3.76079e-06
3.78465e-06
3.80823e-06
3.8315e-06
3.85447e-06
3.87712e-06
3.89945e-06
3.92146e-06
3.94313e-06
3.96446e-06
3.98544e-06
4.00607e-06
4.02633e-06
4.04623e-06
4.06576e-06
4.08491e-06
4.10367e-06
4.12204e-06
4.14002e-06
4.15759e-06
4.17476e-06
4.19151e-06
4.20786e-06
4.22378e-06
4.23927e-06
4.25434e-06
4.26898e-06
4.28318e-06
4.29694e-06
4.31026e-06
4.32314e-06
4.33557e-06
4.34755e-06
4.35908e-06
4.37016e-06
4.38079e-06
4.39097e-06
4.40069e-06
4.40997e-06
4.41879e-06
4.42717e-06
4.4351e-06
4.44259e-06
4.44963e-06
4.45624e-06
4.46243e-06
4.46818e-06
4.47352e-06
4.47845e-06
4.48297e-06
4.48709e-06
4.49083e-06
4.49419e-06
4.49719e-06
4.49983e-06
4.50214e-06
4.50413e-06
4.5058e-06
4.50719e-06
4.5083e-06
4.50916e-06
4.50978e-06
4.51018e-06
4.5104e-06
4.51045e-06
4.51036e-06
4.51015e-06
4.50984e-06
4.50947e-06
4.50905e-06
4.50863e-06
4.50821e-06
4.50783e-06
4.50752e-06
4.50729e-06
4.50717e-06
1.03154e-11
3.30657e-11
5.8049e-11
8.54105e-11
1.153e-10
1.47857e-10
1.83215e-10
2.21507e-10
2.62871e-10
3.07451e-10
3.55395e-10
4.0686e-10
4.62007e-10
5.21003e-10
5.84018e-10
6.51229e-10
7.22817e-10
7.98965e-10
8.79863e-10
9.65706e-10
1.05669e-09
1.15302e-09
1.25489e-09
1.36253e-09
1.47615e-09
1.59597e-09
1.72221e-09
1.8551e-09
1.99489e-09
2.1418e-09
2.29609e-09
2.45801e-09
2.62781e-09
2.80576e-09
2.99211e-09
3.18715e-09
3.39116e-09
3.6044e-09
3.82719e-09
4.05981e-09
4.30256e-09
4.55575e-09
4.8197e-09
5.09473e-09
5.38117e-09
5.67935e-09
5.98962e-09
6.31232e-09
6.64781e-09
6.99645e-09
7.35862e-09
7.73469e-09
8.12506e-09
8.53011e-09
8.95026e-09
9.38591e-09
9.83749e-09
1.03054e-08
1.07902e-08
1.12921e-08
1.18118e-08
1.23497e-08
1.29062e-08
1.34818e-08
1.40771e-08
1.46925e-08
1.53285e-08
1.59858e-08
1.66648e-08
1.73661e-08
1.80903e-08
1.88379e-08
1.96095e-08
2.04057e-08
2.12272e-08
2.20745e-08
2.29483e-08
2.38493e-08
2.47782e-08
2.57355e-08
2.6722e-08
2.77385e-08
2.87856e-08
2.9864e-08
3.09746e-08
3.2118e-08
3.32952e-08
3.45068e-08
3.57537e-08
3.70367e-08
3.83567e-08
3.97145e-08
4.11111e-08
4.25472e-08
4.40239e-08
4.5542e-08
4.71025e-08
4.87064e-08
5.03547e-08
5.20483e-08
5.37883e-08
5.55757e-08
5.74116e-08
5.92971e-08
6.12332e-08
6.3221e-08
6.52618e-08
6.73567e-08
6.95067e-08
7.17132e-08
7.39773e-08
7.63003e-08
7.86834e-08
8.11279e-08
8.36351e-08
8.62062e-08
8.88427e-08
9.15459e-08
9.43172e-08
9.71579e-08
1.00069e-07
1.03053e-07
1.06111e-07
1.09244e-07
1.12453e-07
1.15741e-07
1.19109e-07
1.22558e-07
1.2609e-07
1.29706e-07
1.33409e-07
1.37199e-07
1.41079e-07
1.4505e-07
1.49113e-07
1.53272e-07
1.57526e-07
1.61878e-07
1.66331e-07
1.70884e-07
1.75542e-07
1.80304e-07
1.85173e-07
1.90151e-07
1.9524e-07
2.00442e-07
2.05758e-07
2.11191e-07
2.16742e-07
2.22413e-07
2.28207e-07
2.34125e-07
2.40169e-07
2.46342e-07
2.52645e-07
2.5908e-07
2.65649e-07
2.72355e-07
2.79199e-07
2.86184e-07
2.93311e-07
3.00583e-07
3.08002e-07
3.15569e-07
3.23287e-07
3.31158e-07
3.39185e-07
3.47368e-07
3.5571e-07
3.64214e-07
3.72881e-07
3.81713e-07
3.90713e-07
3.99882e-07
4.09223e-07
4.18738e-07
4.28428e-07
4.38297e-07
4.48345e-07
4.58574e-07
4.68988e-07
4.79587e-07
4.90375e-07
5.01351e-07
5.1252e-07
5.23882e-07
5.35439e-07
5.47193e-07
5.59147e-07
5.71302e-07
5.83659e-07
5.9622e-07
6.08988e-07
6.21964e-07
6.35149e-07
6.48545e-07
6.62153e-07
6.75976e-07
6.90015e-07
7.0427e-07
7.18744e-07
7.33438e-07
7.48353e-07
7.63491e-07
7.78852e-07
7.94438e-07
8.1025e-07
8.26288e-07
8.42555e-07
8.5905e-07
8.75775e-07
8.92731e-07
9.09917e-07
9.27336e-07
9.44987e-07
9.62871e-07
9.80989e-07
9.9934e-07
1.01793e-06
1.03674e-06
1.0558e-06
1.07509e-06
1.09461e-06
1.11437e-06
1.13436e-06
1.15458e-06
1.17504e-06
1.19573e-06
1.21666e-06
1.23781e-06
1.2592e-06
1.28082e-06
1.30267e-06
1.32474e-06
1.34704e-06
1.36957e-06
1.39232e-06
1.4153e-06
1.43849e-06
1.46191e-06
1.48554e-06
1.50939e-06
1.53346e-06
1.55773e-06
1.58222e-06
1.60691e-06
1.63181e-06
1.65691e-06
1.68221e-06
1.70771e-06
1.7334e-06
1.75928e-06
1.78535e-06
1.8116e-06
1.83804e-06
1.86465e-06
1.89144e-06
1.91839e-06
1.94552e-06
1.9728e-06
2.00025e-06
2.02784e-06
2.05559e-06
2.08348e-06
2.11152e-06
2.13969e-06
2.16799e-06
2.19641e-06
2.22496e-06
2.25363e-06
2.2824e-06
2.31128e-06
2.34026e-06
2.36934e-06
2.3985e-06
2.42775e-06
2.45707e-06
2.48647e-06
2.51593e-06
2.54545e-06
2.57502e-06
2.60463e-06
2.63429e-06
2.66398e-06
2.69369e-06
2.72343e-06
2.75318e-06
2.78293e-06
2.81268e-06
2.84242e-06
2.87215e-06
2.90185e-06
2.93153e-06
2.96116e-06
2.99076e-06
3.02029e-06
3.04977e-06
3.07918e-06
3.10852e-06
3.13777e-06
3.16693e-06
3.196e-06
3.22495e-06
3.25379e-06
3.28251e-06
3.3111e-06
3.33955e-06
3.36786e-06
3.39601e-06
3.424e-06
3.45182e-06
3.47946e-06
3.50691e-06
3.53417e-06
3.56123e-06
3.58808e-06
3.61471e-06
3.64111e-06
3.66728e-06
3.69321e-06
3.71888e-06
3.7443e-06
3.76946e-06
3.79434e-06
3.81894e-06
3.84326e-06
3.86728e-06
3.89099e-06
3.9144e-06
3.93748e-06
3.96025e-06
3.98268e-06
4.00477e-06
4.02651e-06
4.04791e-06
4.06894e-06
4.08961e-06
4.10991e-06
4.12983e-06
4.14936e-06
4.1685e-06
4.18725e-06
4.2056e-06
4.22354e-06
4.24106e-06
4.25817e-06
4.27486e-06
4.29112e-06
4.30695e-06
4.32235e-06
4.33731e-06
4.35182e-06
4.36589e-06
4.37951e-06
4.39268e-06
4.4054e-06
4.41766e-06
4.42946e-06
4.44081e-06
4.4517e-06
4.46213e-06
4.47209e-06
4.4816e-06
4.49065e-06
4.49925e-06
4.50739e-06
4.51508e-06
4.52233e-06
4.52913e-06
4.53549e-06
4.54142e-06
4.54692e-06
4.552e-06
4.55666e-06
4.56093e-06
4.5648e-06
4.56828e-06
4.57139e-06
4.57414e-06
4.57655e-06
4.57862e-06
4.58038e-06
4.58184e-06
4.58302e-06
4.58393e-06
4.5846e-06
4.58505e-06
4.58531e-06
4.58538e-06
4.58532e-06
4.58512e-06
4.58483e-06
4.58446e-06
4.58404e-06
4.58361e-06
4.58319e-06
4.58281e-06
4.58248e-06
4.58225e-06
4.58213e-06
1.01708e-11
3.25924e-11
5.71889e-11
8.40975e-11
1.13475e-10
1.45477e-10
1.80259e-10
2.1797e-10
2.58765e-10
3.02796e-10
3.50219e-10
4.01193e-10
4.55882e-10
5.14451e-10
5.77071e-10
6.43915e-10
7.15164e-10
7.91e-10
8.71612e-10
9.57192e-10
1.04794e-09
1.14405e-09
1.24574e-09
1.35322e-09
1.4667e-09
1.58641e-09
1.71257e-09
1.84543e-09
1.9852e-09
2.13214e-09
2.2865e-09
2.44853e-09
2.61848e-09
2.79662e-09
2.98323e-09
3.17857e-09
3.38293e-09
3.5966e-09
3.81987e-09
4.05303e-09
4.2964e-09
4.55029e-09
4.81501e-09
5.09089e-09
5.37826e-09
5.67746e-09
5.98884e-09
6.31275e-09
6.64955e-09
6.99961e-09
7.3633e-09
7.74101e-09
8.13313e-09
8.54006e-09
8.96221e-09
9.4e-09
9.85385e-09
1.03242e-08
1.08115e-08
1.13162e-08
1.18387e-08
1.23796e-08
1.29393e-08
1.35183e-08
1.41171e-08