/*--------------------------------*- C++ -*----------------------------------*\
  =========                 |
  \\      /  F ield         | OpenFOAM: The Open Source CFD Toolbox
   \\    /   O peration     | Website:  https://openfoam.org
    \\  /    A nd           | Version:  dev
     \\/     M anipulation  |
\*---------------------------------------------------------------------------*/
FoamFile
{
    format      ascii;
    class       volScalarField;
    location    "0.68";
    object      Exp1;
}
// * * * * * * * * * * * * * * * * * * * * * * * * * * * * * * * * * * * * * //

dimensions      [0 0 0 0 0 0 0];

internalField   uniform 0;

boundaryField
{
    frontAndBack
    {
        type            empty;
    }
    inlet
    {
        type            calculated;
        value           uniform 0;
    }
    outlet
    {
        type            calculated;
        value           uniform 0;
    }
    substrate
    {
        type            calculated;
        value           nonuniform List<scalar> 
400
(
3.14185e-17
1.00069e-16
1.75596e-16
2.57683e-16
3.46383e-16
4.42006e-16
5.4485e-16
6.55233e-16
7.73507e-16
9.00056e-16
1.03529e-15
1.17963e-15
1.33353e-15
1.49745e-15
1.67185e-15
1.85721e-15
2.05402e-15
2.26278e-15
2.484e-15
2.71818e-15
2.96585e-15
3.22754e-15
3.50378e-15
3.79514e-15
4.10216e-15
4.42543e-15
4.76552e-15
5.12302e-15
5.49856e-15
5.89274e-15
6.3062e-15
6.7396e-15
7.19359e-15
7.66886e-15
8.1661e-15
8.68602e-15
9.22936e-15
9.79685e-15
1.03893e-14
1.10074e-14
1.1652e-14
1.23239e-14
1.3024e-14
1.37531e-14
1.45121e-14
1.53019e-14
1.61234e-14
1.69777e-14
1.78655e-14
1.87881e-14
1.97463e-14
2.07412e-14
2.17739e-14
2.28455e-14
2.39572e-14
2.51101e-14
2.63054e-14
2.75443e-14
2.88281e-14
3.0158e-14
3.15355e-14
3.29618e-14
3.44384e-14
3.59666e-14
3.75481e-14
3.91842e-14
4.08765e-14
4.26267e-14
4.44364e-14
4.63072e-14
4.82409e-14
5.02392e-14
5.23041e-14
5.44373e-14
5.66408e-14
5.89166e-14
6.12667e-14
6.36932e-14
6.61982e-14
6.8784e-14
7.14528e-14
7.42069e-14
7.70488e-14
7.99809e-14
8.30056e-14
8.61257e-14
8.93438e-14
9.26626e-14
9.60849e-14
9.96137e-14
1.03252e-13
1.07002e-13
1.10868e-13
1.14853e-13
1.1896e-13
1.23193e-13
1.27554e-13
1.32048e-13
1.36678e-13
1.41448e-13
1.46362e-13
1.51424e-13
1.56638e-13
1.62008e-13
1.67538e-13
1.73234e-13
1.79098e-13
1.85137e-13
1.91355e-13
1.97756e-13
2.04346e-13
2.11131e-13
2.18114e-13
2.25303e-13
2.32701e-13
2.40316e-13
2.48153e-13
2.56218e-13
2.64517e-13
2.73057e-13
2.81845e-13
2.90886e-13
3.00187e-13
3.09757e-13
3.19602e-13
3.29729e-13
3.40146e-13
3.50862e-13
3.61883e-13
3.73218e-13
3.84876e-13
3.96866e-13
4.09195e-13
4.21874e-13
4.34911e-13
4.48316e-13
4.62098e-13
4.76269e-13
4.90838e-13
5.05815e-13
5.21212e-13
5.3704e-13
5.53309e-13
5.70031e-13
5.8722e-13
6.04885e-13
6.23041e-13
6.41699e-13
6.60874e-13
6.80578e-13
7.00825e-13
7.21629e-13
7.43004e-13
7.64967e-13
7.8753e-13
8.10711e-13
8.34524e-13
8.58987e-13
8.84115e-13
9.09925e-13
9.36436e-13
9.63664e-13
9.91629e-13
1.02035e-12
1.04984e-12
1.08013e-12
1.11123e-12
1.14316e-12
1.17595e-12
1.20961e-12
1.24417e-12
1.27965e-12
1.31607e-12
1.35346e-12
1.39184e-12
1.43124e-12
1.47167e-12
1.51317e-12
1.55576e-12
1.59947e-12
1.64432e-12
1.69034e-12
1.73757e-12
1.78603e-12
1.83574e-12
1.88675e-12
1.93907e-12
1.99275e-12
2.04782e-12
2.1043e-12
2.16223e-12
2.22165e-12
2.28259e-12
2.34509e-12
2.40918e-12
2.4749e-12
2.54228e-12
2.61138e-12
2.68222e-12
2.75485e-12
2.82931e-12
2.90564e-12
2.98389e-12
3.06409e-12
3.14629e-12
3.23054e-12
3.31688e-12
3.40537e-12
3.49604e-12
3.58895e-12
3.68416e-12
3.7817e-12
3.88163e-12
3.984e-12
4.08888e-12
4.19631e-12
4.30635e-12
4.41905e-12
4.53448e-12
4.65269e-12
4.77375e-12
4.89771e-12
5.02464e-12
5.1546e-12
5.28765e-12
5.42387e-12
5.56332e-12
5.70606e-12
5.85216e-12
6.00171e-12
6.15476e-12
6.31139e-12
6.47167e-12
6.63569e-12
6.80351e-12
6.97522e-12
7.15089e-12
7.3306e-12
7.51444e-12
7.70248e-12
7.89482e-12
8.09154e-12
8.29272e-12
8.49846e-12
8.70884e-12
8.92395e-12
9.14389e-12
9.36875e-12
9.59862e-12
9.83361e-12
1.00738e-11
1.03193e-11
1.05702e-11
1.08267e-11
1.10887e-11
1.13565e-11
1.16301e-11
1.19096e-11
1.21952e-11
1.24869e-11
1.27849e-11
1.30893e-11
1.34002e-11
1.37177e-11
1.40419e-11
1.4373e-11
1.47111e-11
1.50562e-11
1.54086e-11
1.57683e-11
1.61355e-11
1.65104e-11
1.68929e-11
1.72833e-11
1.76817e-11
1.80883e-11
1.85031e-11
1.89263e-11
1.93581e-11
1.97986e-11
2.02479e-11
2.07061e-11
2.11735e-11
2.16502e-11
2.21363e-11
2.26319e-11
2.31372e-11
2.36524e-11
2.41776e-11
2.4713e-11
2.52587e-11
2.58149e-11
2.63817e-11
2.69594e-11
2.7548e-11
2.81477e-11
2.87587e-11
2.93811e-11
3.00152e-11
3.0661e-11
3.13188e-11
3.19887e-11
3.26708e-11
3.33655e-11
3.40727e-11
3.47927e-11
3.55257e-11
3.62718e-11
3.70313e-11
3.78042e-11
3.85908e-11
3.93912e-11
4.02056e-11
4.10341e-11
4.18771e-11
4.27345e-11
4.36066e-11
4.44937e-11
4.53957e-11
4.6313e-11
4.72457e-11
4.81939e-11
4.91579e-11
5.01378e-11
5.11337e-11
5.21459e-11
5.31745e-11
5.42196e-11
5.52815e-11
5.63602e-11
5.7456e-11
5.8569e-11
5.96993e-11
6.08471e-11
6.20125e-11
6.31956e-11
6.43966e-11
6.56157e-11
6.68528e-11
6.81082e-11
6.93819e-11
7.0674e-11
7.19846e-11
7.33137e-11
7.46615e-11
7.6028e-11
7.74132e-11
7.88171e-11
8.02397e-11
8.1681e-11
8.3141e-11
8.46196e-11
8.61167e-11
8.76323e-11
8.9166e-11
9.07179e-11
9.22876e-11
9.3875e-11
9.54796e-11
9.71013e-11
9.87396e-11
1.00394e-10
1.02064e-10
1.03749e-10
1.05449e-10
1.07162e-10
1.08888e-10
1.10627e-10
1.12376e-10
1.14135e-10
1.15902e-10
1.17677e-10
1.19458e-10
1.21242e-10
1.23028e-10
1.24815e-10
1.26598e-10
1.28377e-10
1.30149e-10
1.31909e-10
1.33655e-10
1.35383e-10
1.37089e-10
1.38768e-10
1.40416e-10
1.42026e-10
1.43594e-10
1.45111e-10
1.46573e-10
1.47969e-10
1.49293e-10
1.50534e-10
1.51683e-10
1.5273e-10
1.53662e-10
1.54469e-10
1.55138e-10
1.55655e-10
1.5601e-10
1.56192e-10
)
;
    }
    Wall
    {
        type            calculated;
        value           nonuniform List<scalar> 
400
(
3.14179e-17
1.00067e-16
1.75593e-16
2.57678e-16
3.46376e-16
4.41995e-16
5.44836e-16
6.55216e-16
7.73485e-16
9.00029e-16
1.03526e-15
1.17959e-15
1.33349e-15
1.49739e-15
1.67178e-15
1.85714e-15
2.05394e-15
2.26269e-15
2.4839e-15
2.71807e-15
2.96573e-15
3.2274e-15
3.50364e-15
3.79498e-15
4.10199e-15
4.42525e-15
4.76532e-15
5.12282e-15
5.49834e-15
5.8925e-15
6.30596e-15
6.73934e-15
7.19332e-15
7.66857e-15
8.1658e-15
8.68571e-15
9.22903e-15
9.7965e-15
1.03889e-14
1.1007e-14
1.16516e-14
1.23235e-14
1.30235e-14
1.37526e-14
1.45116e-14
1.53014e-14
1.61229e-14
1.69771e-14
1.78649e-14
1.87874e-14
1.97456e-14
2.07405e-14
2.17732e-14
2.28448e-14
2.39565e-14
2.51093e-14
2.63046e-14
2.75434e-14
2.88272e-14
3.01571e-14
3.15345e-14
3.29608e-14
3.44373e-14
3.59655e-14
3.75469e-14
3.9183e-14
4.08753e-14
4.26255e-14
4.44351e-14
4.63058e-14
4.82395e-14
5.02378e-14
5.23026e-14
5.44357e-14
5.66392e-14
5.89149e-14
6.12649e-14
6.36914e-14
6.61963e-14
6.8782e-14
7.14508e-14
7.42048e-14
7.70466e-14
7.99786e-14
8.30034e-14
8.61234e-14
8.93414e-14
9.26601e-14
9.60823e-14
9.96109e-14
1.03249e-13
1.06999e-13
1.10865e-13
1.1485e-13
1.18957e-13
1.23189e-13
1.27551e-13
1.32044e-13
1.36674e-13
1.41445e-13
1.46358e-13
1.5142e-13
1.56634e-13
1.62004e-13
1.67534e-13
1.73229e-13
1.79094e-13
1.85132e-13
1.9135e-13
1.97751e-13
2.04341e-13
2.11125e-13
2.18108e-13
2.25297e-13
2.32695e-13
2.4031e-13
2.48147e-13
2.56211e-13
2.6451e-13
2.7305e-13
2.81837e-13
2.90878e-13
3.00179e-13
3.09749e-13
3.19593e-13
3.2972e-13
3.40137e-13
3.50853e-13
3.61874e-13
3.73209e-13
3.84866e-13
3.96855e-13
4.09184e-13
4.21863e-13
4.34899e-13
4.48304e-13
4.62086e-13
4.76257e-13
4.90825e-13
5.05802e-13
5.21199e-13
5.37026e-13
5.53295e-13
5.70017e-13
5.87205e-13
6.0487e-13
6.23025e-13
6.41683e-13
6.60857e-13
6.80561e-13
7.00807e-13
7.21611e-13
7.42986e-13
7.64947e-13
7.8751e-13
8.1069e-13
8.34503e-13
8.58965e-13
8.84092e-13
9.09902e-13
9.36412e-13
9.6364e-13
9.91604e-13
1.02032e-12
1.04981e-12
1.0801e-12
1.1112e-12
1.14313e-12
1.17592e-12
1.20958e-12
1.24414e-12
1.27962e-12
1.31604e-12
1.35343e-12
1.39181e-12
1.4312e-12
1.47164e-12
1.51313e-12
1.55572e-12
1.59943e-12
1.64428e-12
1.6903e-12
1.73753e-12
1.78598e-12
1.8357e-12
1.8867e-12
1.93902e-12
1.9927e-12
2.04776e-12
2.10425e-12
2.16218e-12
2.22159e-12
2.28253e-12
2.34503e-12
2.40912e-12
2.47483e-12
2.54222e-12
2.61132e-12
2.68216e-12
2.75479e-12
2.82924e-12
2.90557e-12
2.98381e-12
3.06401e-12
3.14621e-12
3.23046e-12
3.3168e-12
3.40528e-12
3.49596e-12
3.58887e-12
3.68407e-12
3.7816e-12
3.88153e-12
3.98391e-12
4.08878e-12
4.19621e-12
4.30624e-12
4.41894e-12
4.53437e-12
4.65258e-12
4.77363e-12
4.89759e-12
5.02452e-12
5.15447e-12
5.28753e-12
5.42374e-12
5.56318e-12
5.70592e-12
5.85202e-12
6.00156e-12
6.15461e-12
6.31124e-12
6.47152e-12
6.63553e-12
6.80335e-12
6.97505e-12
7.15072e-12
7.33042e-12
7.51426e-12
7.7023e-12
7.89464e-12
8.09135e-12
8.29253e-12
8.49826e-12
8.70863e-12
8.92374e-12
9.14367e-12
9.36852e-12
9.59839e-12
9.83337e-12
1.00736e-11
1.03191e-11
1.057e-11
1.08264e-11
1.10884e-11
1.13562e-11
1.16298e-11
1.19093e-11
1.21949e-11
1.24866e-11
1.27846e-11
1.3089e-11
1.33999e-11
1.37173e-11
1.40416e-11
1.43727e-11
1.47107e-11
1.50559e-11
1.54082e-11
1.5768e-11
1.61352e-11
1.651e-11
1.68925e-11
1.72829e-11
1.76813e-11
1.80879e-11
1.85027e-11
1.89259e-11
1.93577e-11
1.97981e-11
2.02474e-11
2.07057e-11
2.1173e-11
2.16497e-11
2.21357e-11
2.26313e-11
2.31367e-11
2.36519e-11
2.41771e-11
2.47124e-11
2.52581e-11
2.58143e-11
2.63811e-11
2.69588e-11
2.75473e-11
2.8147e-11
2.8758e-11
2.93804e-11
3.00145e-11
3.06603e-11
3.13181e-11
3.19879e-11
3.26701e-11
3.33647e-11
3.40719e-11
3.47919e-11
3.55249e-11
3.6271e-11
3.70304e-11
3.78033e-11
3.85899e-11
3.93903e-11
4.02046e-11
4.10332e-11
4.18761e-11
4.27335e-11
4.36057e-11
4.44927e-11
4.53947e-11
4.6312e-11
4.72447e-11
4.81929e-11
4.91568e-11
5.01367e-11
5.11326e-11
5.21448e-11
5.31733e-11
5.42185e-11
5.52803e-11
5.6359e-11
5.74548e-11
5.85677e-11
5.9698e-11
6.08458e-11
6.20112e-11
6.31943e-11
6.43953e-11
6.56143e-11
6.68514e-11
6.81067e-11
6.93804e-11
7.06725e-11
7.19831e-11
7.33122e-11
7.466e-11
7.60264e-11
7.74116e-11
7.88155e-11
8.02381e-11
8.16794e-11
8.31393e-11
8.46179e-11
8.6115e-11
8.76304e-11
8.91642e-11
9.0716e-11
9.22857e-11
9.3873e-11
9.54777e-11
9.70993e-11
9.87376e-11
1.00392e-10
1.02062e-10
1.03747e-10
1.05447e-10
1.0716e-10
1.08886e-10
1.10624e-10
1.12374e-10
1.14133e-10
1.159e-10
1.17675e-10
1.19455e-10
1.2124e-10
1.23026e-10
1.24812e-10
1.26596e-10
1.28375e-10
1.30146e-10
1.31906e-10
1.33653e-10
1.35381e-10
1.37086e-10
1.38766e-10
1.40413e-10
1.42024e-10
1.43591e-10
1.45109e-10
1.4657e-10
1.47967e-10
1.4929e-10
1.50532e-10
1.51681e-10
1.52727e-10
1.5366e-10
1.54467e-10
1.55135e-10
1.55653e-10
1.56009e-10
1.5619e-10
)
;
    }
}


// ************************************************************************* //
