/*--------------------------------*- C++ -*----------------------------------*\
  =========                 |
  \\      /  F ield         | OpenFOAM: The Open Source CFD Toolbox
   \\    /   O peration     | Website:  https://openfoam.org
    \\  /    A nd           | Version:  dev
     \\/     M anipulation  |
\*---------------------------------------------------------------------------*/
FoamFile
{
    format      ascii;
    class       volScalarField;
    location    "0.68";
    object      N1;
}
// * * * * * * * * * * * * * * * * * * * * * * * * * * * * * * * * * * * * * //

dimensions      [0 0 0 0 0 0 0];

internalField   nonuniform List<scalar> 
8000
(
2.38544e-16
7.59963e-16
1.33379e-15
1.95763e-15
2.63191e-15
3.35898e-15
4.14114e-15
4.98081e-15
5.88069e-15
6.84372e-15
7.87303e-15
8.97191e-15
1.01438e-14
1.13921e-14
1.27205e-14
1.41327e-14
1.56324e-14
1.72235e-14
1.89097e-14
2.06952e-14
2.25837e-14
2.45796e-14
2.66868e-14
2.89097e-14
3.12525e-14
3.37196e-14
3.63156e-14
3.9045e-14
4.19125e-14
4.49229e-14
4.8081e-14
5.13919e-14
5.48607e-14
5.84927e-14
6.22931e-14
6.62675e-14
7.04215e-14
7.47607e-14
7.92912e-14
8.40189e-14
8.89499e-14
9.40907e-14
9.94476e-14
1.05027e-13
1.10837e-13
1.16883e-13
1.23172e-13
1.29713e-13
1.36512e-13
1.43577e-13
1.50916e-13
1.58538e-13
1.6645e-13
1.74661e-13
1.8318e-13
1.92015e-13
2.01176e-13
2.10673e-13
2.20515e-13
2.30711e-13
2.41273e-13
2.5221e-13
2.63534e-13
2.75255e-13
2.87385e-13
2.99936e-13
3.12919e-13
3.26346e-13
3.40231e-13
3.54586e-13
3.69425e-13
3.84762e-13
4.00609e-13
4.16983e-13
4.33897e-13
4.51366e-13
4.69408e-13
4.88037e-13
5.0727e-13
5.27124e-13
5.47617e-13
5.68766e-13
5.9059e-13
6.13108e-13
6.36339e-13
6.60303e-13
6.85021e-13
7.10513e-13
7.36802e-13
7.63909e-13
7.91858e-13
8.20672e-13
8.50374e-13
8.8099e-13
9.12545e-13
9.45066e-13
9.78578e-13
1.01311e-12
1.04869e-12
1.08535e-12
1.12311e-12
1.16201e-12
1.20208e-12
1.24335e-12
1.28585e-12
1.32963e-12
1.3747e-12
1.42112e-12
1.46891e-12
1.51811e-12
1.56877e-12
1.62092e-12
1.6746e-12
1.72985e-12
1.78673e-12
1.84527e-12
1.90551e-12
1.96751e-12
2.03132e-12
2.09697e-12
2.16452e-12
2.23403e-12
2.30554e-12
2.37912e-12
2.45481e-12
2.53267e-12
2.61276e-12
2.69515e-12
2.77988e-12
2.86704e-12
2.95668e-12
3.04886e-12
3.14366e-12
3.24114e-12
3.34139e-12
3.44446e-12
3.55044e-12
3.6594e-12
3.77142e-12
3.88659e-12
4.00498e-12
4.12669e-12
4.25179e-12
4.38038e-12
4.51255e-12
4.64839e-12
4.788e-12
4.93148e-12
5.07893e-12
5.23045e-12
5.38615e-12
5.54613e-12
5.71051e-12
5.87939e-12
6.05291e-12
6.23117e-12
6.41429e-12
6.60241e-12
6.79565e-12
6.99414e-12
7.19801e-12
7.4074e-12
7.62245e-12
7.84331e-12
8.07012e-12
8.30303e-12
8.54219e-12
8.78776e-12
9.03991e-12
9.29879e-12
9.56458e-12
9.83744e-12
1.01175e-11
1.04051e-11
1.07003e-11
1.10032e-11
1.13142e-11
1.16333e-11
1.19608e-11
1.2297e-11
1.26419e-11
1.29959e-11
1.33591e-11
1.37317e-11
1.41141e-11
1.45063e-11
1.49087e-11
1.53216e-11
1.5745e-11
1.61794e-11
1.6625e-11
1.70819e-11
1.75506e-11
1.80312e-11
1.85241e-11
1.90296e-11
1.95478e-11
2.00792e-11
2.06241e-11
2.11826e-11
2.17553e-11
2.23423e-11
2.29441e-11
2.35609e-11
2.41931e-11
2.4841e-11
2.55051e-11
2.61856e-11
2.68829e-11
2.75975e-11
2.83297e-11
2.90798e-11
2.98484e-11
3.06357e-11
3.14423e-11
3.22685e-11
3.31148e-11
3.39816e-11
3.48693e-11
3.57785e-11
3.67095e-11
3.76629e-11
3.8639e-11
3.96385e-11
4.06619e-11
4.17095e-11
4.27819e-11
4.38797e-11
4.50034e-11
4.61535e-11
4.73306e-11
4.85352e-11
4.9768e-11
5.10294e-11
5.23201e-11
5.36406e-11
5.49917e-11
5.63738e-11
5.77877e-11
5.92339e-11
6.07132e-11
6.22261e-11
6.37734e-11
6.53556e-11
6.69736e-11
6.8628e-11
7.03195e-11
7.20489e-11
7.38168e-11
7.56241e-11
7.74714e-11
7.93595e-11
8.12893e-11
8.32615e-11
8.52768e-11
8.73362e-11
8.94403e-11
9.15902e-11
9.37865e-11
9.60302e-11
9.83221e-11
1.00663e-10
1.03054e-10
1.05496e-10
1.07989e-10
1.10536e-10
1.13136e-10
1.1579e-10
1.18501e-10
1.21267e-10
1.24091e-10
1.26974e-10
1.29916e-10
1.32919e-10
1.35983e-10
1.3911e-10
1.423e-10
1.45555e-10
1.48876e-10
1.52263e-10
1.55719e-10
1.59243e-10
1.62838e-10
1.66504e-10
1.70242e-10
1.74054e-10
1.7794e-10
1.81903e-10
1.85942e-10
1.9006e-10
1.94257e-10
1.98534e-10
2.02894e-10
2.07336e-10
2.11863e-10
2.16475e-10
2.21174e-10
2.25961e-10
2.30838e-10
2.35805e-10
2.40864e-10
2.46016e-10
2.51262e-10
2.56604e-10
2.62044e-10
2.67581e-10
2.73219e-10
2.78957e-10
2.84798e-10
2.90742e-10
2.96792e-10
3.02947e-10
3.09211e-10
3.15583e-10
3.22066e-10
3.28661e-10
3.35368e-10
3.4219e-10
3.49128e-10
3.56182e-10
3.63356e-10
3.70648e-10
3.78062e-10
3.85598e-10
3.93258e-10
4.01042e-10
4.08953e-10
4.16991e-10
4.25158e-10
4.33454e-10
4.41882e-10
4.50442e-10
4.59135e-10
4.67962e-10
4.76925e-10
4.86024e-10
4.95261e-10
5.04637e-10
5.14151e-10
5.23806e-10
5.33602e-10
5.43539e-10
5.53619e-10
5.63841e-10
5.74207e-10
5.84716e-10
5.9537e-10
6.06167e-10
6.17108e-10
6.28193e-10
6.39422e-10
6.50794e-10
6.62308e-10
6.73963e-10
6.85759e-10
6.97694e-10
7.09767e-10
7.21975e-10
7.34316e-10
7.46788e-10
7.59388e-10
7.72112e-10
7.84957e-10
7.97917e-10
8.10988e-10
8.24165e-10
8.37441e-10
8.5081e-10
8.64262e-10
8.77791e-10
8.91385e-10
9.05034e-10
9.18727e-10
9.3245e-10
9.46189e-10
9.59927e-10
9.73647e-10
9.87328e-10
1.00095e-09
1.01449e-09
1.02792e-09
1.04121e-09
1.05433e-09
1.06724e-09
1.07991e-09
1.0923e-09
1.10435e-09
1.11603e-09
1.12726e-09
1.13801e-09
1.14818e-09
1.15773e-09
1.16657e-09
1.17462e-09
1.18179e-09
1.188e-09
1.19314e-09
1.19712e-09
1.19985e-09
1.20125e-09
2.33681e-16
7.49131e-16
1.31811e-15
1.93982e-15
2.61421e-15
3.34284e-15
4.12773e-15
4.97121e-15
5.87594e-15
6.84488e-15
7.88119e-15
8.9882e-15
1.01694e-14
1.14284e-14
1.27688e-14
1.41944e-14
1.57092e-14
1.73169e-14
1.90216e-14
2.08273e-14
2.27381e-14
2.47583e-14
2.68921e-14
2.91439e-14
3.1518e-14
3.40192e-14
3.66519e-14
3.94209e-14
4.2331e-14
4.53872e-14
4.85946e-14
5.19582e-14
5.54834e-14
5.91756e-14
6.30403e-14
6.70832e-14
7.13101e-14
7.57269e-14
8.03396e-14
8.51546e-14
9.01782e-14
9.54169e-14
1.00877e-13
1.06567e-13
1.12491e-13
1.18659e-13
1.25077e-13
1.31753e-13
1.38694e-13
1.45909e-13
1.53406e-13
1.61192e-13
1.69277e-13
1.7767e-13
1.86379e-13
1.95413e-13
2.04783e-13
2.14498e-13
2.24567e-13
2.35002e-13
2.45812e-13
2.57009e-13
2.68604e-13
2.80607e-13
2.93031e-13
3.05889e-13
3.19191e-13
3.32951e-13
3.47182e-13
3.61897e-13
3.7711e-13
3.92835e-13
4.09086e-13
4.25879e-13
4.43229e-13
4.61151e-13
4.79661e-13
4.98777e-13
5.18515e-13
5.38892e-13
5.59927e-13
5.81639e-13
6.04045e-13
6.27166e-13
6.51021e-13
6.75631e-13
7.01018e-13
7.27202e-13
7.54207e-13
7.82055e-13
8.1077e-13
8.40375e-13
8.70896e-13
9.02358e-13
9.34787e-13
9.6821e-13
1.00266e-12
1.03815e-12
1.07472e-12
1.11241e-12
1.15123e-12
1.19123e-12
1.23242e-12
1.27486e-12
1.31857e-12
1.36358e-12
1.40994e-12
1.45767e-12
1.50682e-12
1.55743e-12
1.60953e-12
1.66317e-12
1.71839e-12
1.77524e-12
1.83374e-12
1.89397e-12
1.95595e-12
2.01973e-12
2.08538e-12
2.15293e-12
2.22243e-12
2.29395e-12
2.36754e-12
2.44325e-12
2.52113e-12
2.60126e-12
2.68368e-12
2.76846e-12
2.85567e-12
2.94537e-12
3.03762e-12
3.13249e-12
3.23006e-12
3.3304e-12
3.43357e-12
3.53966e-12
3.64875e-12
3.7609e-12
3.87621e-12
3.99476e-12
4.11663e-12
4.24191e-12
4.37069e-12
4.50306e-12
4.63912e-12
4.77896e-12
4.92269e-12
5.07039e-12
5.22219e-12
5.37818e-12
5.53847e-12
5.70317e-12
5.8724e-12
6.04628e-12
6.22492e-12
6.40845e-12
6.597e-12
6.79068e-12
6.98964e-12
7.194e-12
7.40391e-12
7.61951e-12
7.84094e-12
8.06834e-12
8.30188e-12
8.54169e-12
8.78795e-12
9.04082e-12
9.30045e-12
9.56702e-12
9.8407e-12
1.01217e-11
1.04101e-11
1.07062e-11
1.10101e-11
1.13221e-11
1.16423e-11
1.1971e-11
1.23083e-11
1.26544e-11
1.30096e-11
1.33741e-11
1.37481e-11
1.41319e-11
1.45256e-11
1.49296e-11
1.5344e-11
1.57692e-11
1.62053e-11
1.66526e-11
1.71115e-11
1.75821e-11
1.80647e-11
1.85597e-11
1.90674e-11
1.95879e-11
2.01217e-11
2.06689e-11
2.12301e-11
2.18054e-11
2.23951e-11
2.29997e-11
2.36195e-11
2.42548e-11
2.49059e-11
2.55732e-11
2.62572e-11
2.69581e-11
2.76763e-11
2.84123e-11
2.91664e-11
2.99391e-11
3.07307e-11
3.15417e-11
3.23724e-11
3.32234e-11
3.40951e-11
3.49879e-11
3.59023e-11
3.68388e-11
3.77978e-11
3.87798e-11
3.97853e-11
4.08148e-11
4.18689e-11
4.2948e-11
4.40527e-11
4.51835e-11
4.6341e-11
4.75257e-11
4.87382e-11
4.99791e-11
5.12489e-11
5.25483e-11
5.38779e-11
5.52383e-11
5.663e-11
5.80538e-11
5.95103e-11
6.10001e-11
6.2524e-11
6.40825e-11
6.56765e-11
6.73065e-11
6.89733e-11
7.06776e-11
7.24202e-11
7.42018e-11
7.60231e-11
7.78849e-11
7.97881e-11
8.17333e-11
8.37214e-11
8.57531e-11
8.78294e-11
8.9951e-11
9.21189e-11
9.43337e-11
9.65965e-11
9.89081e-11
1.01269e-10
1.03681e-10
1.06145e-10
1.0866e-10
1.1123e-10
1.13853e-10
1.16532e-10
1.19267e-10
1.22059e-10
1.2491e-10
1.2782e-10
1.3079e-10
1.33821e-10
1.36915e-10
1.40072e-10
1.43294e-10
1.46581e-10
1.49935e-10
1.53357e-10
1.56847e-10
1.60408e-10
1.64039e-10
1.67743e-10
1.71521e-10
1.75373e-10
1.79301e-10
1.83305e-10
1.87388e-10
1.91551e-10
1.95794e-10
2.00119e-10
2.04526e-10
2.09019e-10
2.13597e-10
2.18261e-10
2.23014e-10
2.27857e-10
2.3279e-10
2.37815e-10
2.42934e-10
2.48147e-10
2.53457e-10
2.58863e-10
2.64369e-10
2.69974e-10
2.75681e-10
2.81491e-10
2.87405e-10
2.93424e-10
2.99551e-10
3.05785e-10
3.12129e-10
3.18585e-10
3.25152e-10
3.31834e-10
3.3863e-10
3.45543e-10
3.52575e-10
3.59725e-10
3.66996e-10
3.74389e-10
3.81906e-10
3.89547e-10
3.97315e-10
4.0521e-10
4.13234e-10
4.21387e-10
4.29673e-10
4.3809e-10
4.46642e-10
4.55329e-10
4.64152e-10
4.73113e-10
4.82212e-10
4.91451e-10
5.00831e-10
5.10353e-10
5.20017e-10
5.29825e-10
5.39778e-10
5.49876e-10
5.60121e-10
5.70512e-10
5.8105e-10
5.91737e-10
6.02571e-10
6.13554e-10
6.24686e-10
6.35966e-10
6.47395e-10
6.58972e-10
6.70696e-10
6.82568e-10
6.94586e-10
7.06749e-10
7.19055e-10
7.31504e-10
7.44093e-10
7.56819e-10
7.69681e-10
7.82674e-10
7.95797e-10
8.09044e-10
8.2241e-10
8.35893e-10
8.49484e-10
8.63178e-10
8.76968e-10
8.90846e-10
9.04803e-10
9.18829e-10
9.32913e-10
9.47043e-10
9.61205e-10
9.75385e-10
9.89565e-10
1.00373e-09
1.01785e-09
1.03192e-09
1.0459e-09
1.05977e-09
1.0735e-09
1.08706e-09
1.10041e-09
1.11351e-09
1.12632e-09
1.1388e-09
1.15088e-09
1.16252e-09
1.17365e-09
1.1842e-09
1.19411e-09
1.2033e-09
1.21167e-09
1.21914e-09
1.22562e-09
1.231e-09
1.23517e-09
1.23805e-09
1.23954e-09
2.29306e-16
7.3566e-16
1.29409e-15
1.90624e-15
2.57302e-15
3.29572e-15
4.07611e-15
4.91635e-15
5.81898e-15
6.78687e-15
7.82316e-15
8.93119e-15
1.01144e-14
1.13765e-14
1.27212e-14
1.41523e-14
1.56737e-14
1.72893e-14
1.90033e-14
2.08197e-14
2.27428e-14
2.47769e-14
2.69262e-14
2.91954e-14
3.15888e-14
3.41112e-14
3.67673e-14
3.9562e-14
4.25002e-14
4.55869e-14
4.88275e-14
5.22271e-14
5.57912e-14
5.95253e-14
6.34351e-14
6.75266e-14
7.18055e-14
7.6278e-14
8.09503e-14
8.58289e-14
9.09203e-14
9.62312e-14
1.01768e-13
1.07539e-13
1.1355e-13
1.1981e-13
1.26325e-13
1.33103e-13
1.40152e-13
1.47481e-13
1.55098e-13
1.63012e-13
1.7123e-13
1.79763e-13
1.88619e-13
1.97809e-13
2.07341e-13
2.17226e-13
2.27474e-13
2.38096e-13
2.49102e-13
2.60503e-13
2.72312e-13
2.84539e-13
2.97196e-13
3.10297e-13
3.23853e-13
3.37878e-13
3.52385e-13
3.67387e-13
3.82899e-13
3.98936e-13
4.15511e-13
4.32641e-13
4.50341e-13
4.68627e-13
4.87516e-13
5.07024e-13
5.27169e-13
5.4797e-13
5.69444e-13
5.9161e-13
6.14488e-13
6.38098e-13
6.6246e-13
6.87595e-13
7.13526e-13
7.40273e-13
7.67861e-13
7.96312e-13
8.25651e-13
8.55902e-13
8.87091e-13
9.19243e-13
9.52387e-13
9.86548e-13
1.02176e-12
1.05804e-12
1.09543e-12
1.13395e-12
1.17365e-12
1.21454e-12
1.25666e-12
1.30005e-12
1.34475e-12
1.39078e-12
1.43819e-12
1.48701e-12
1.53728e-12
1.58904e-12
1.64233e-12
1.6972e-12
1.75369e-12
1.81183e-12
1.87169e-12
1.9333e-12
1.99671e-12
2.06197e-12
2.12913e-12
2.19824e-12
2.26936e-12
2.34254e-12
2.41784e-12
2.49531e-12
2.57501e-12
2.657e-12
2.74135e-12
2.82812e-12
2.91736e-12
3.00916e-12
3.10358e-12
3.20068e-12
3.30054e-12
3.40323e-12
3.50883e-12
3.61742e-12
3.72908e-12
3.84388e-12
3.96191e-12
4.08326e-12
4.20801e-12
4.33625e-12
4.46808e-12
4.60359e-12
4.74287e-12
4.88603e-12
5.03317e-12
5.18438e-12
5.33978e-12
5.49948e-12
5.66358e-12
5.83221e-12
6.00547e-12
6.18349e-12
6.3664e-12
6.55431e-12
6.74735e-12
6.94566e-12
7.14937e-12
7.35862e-12
7.57355e-12
7.79431e-12
8.02103e-12
8.25389e-12
8.49302e-12
8.73858e-12
8.99075e-12
9.24968e-12
9.51555e-12
9.78852e-12
1.00688e-11
1.03565e-11
1.06519e-11
1.09551e-11
1.12663e-11
1.15858e-11
1.19137e-11
1.22503e-11
1.25957e-11
1.29502e-11
1.3314e-11
1.36873e-11
1.40703e-11
1.44634e-11
1.48666e-11
1.52804e-11
1.57048e-11
1.61402e-11
1.65869e-11
1.70451e-11
1.7515e-11
1.7997e-11
1.84914e-11
1.89984e-11
1.95183e-11
2.00515e-11
2.05982e-11
2.11588e-11
2.17335e-11
2.23228e-11
2.29269e-11
2.35462e-11
2.4181e-11
2.48318e-11
2.54987e-11
2.61823e-11
2.68829e-11
2.76009e-11
2.83367e-11
2.90906e-11
2.98631e-11
3.06546e-11
3.14656e-11
3.22964e-11
3.31474e-11
3.40192e-11
3.49122e-11
3.58268e-11
3.67636e-11
3.7723e-11
3.87054e-11
3.97115e-11
4.07417e-11
4.17964e-11
4.28763e-11
4.39819e-11
4.51137e-11
4.62723e-11
4.74582e-11
4.8672e-11
4.99143e-11
5.11857e-11
5.24868e-11
5.38181e-11
5.51804e-11
5.65743e-11
5.80003e-11
5.94592e-11
6.09516e-11
6.24781e-11
6.40396e-11
6.56366e-11
6.72698e-11
6.89401e-11
7.06481e-11
7.23946e-11
7.41802e-11
7.60059e-11
7.78722e-11
7.97802e-11
8.17304e-11
8.37238e-11
8.57612e-11
8.78433e-11
8.99711e-11
9.21453e-11
9.4367e-11
9.66368e-11
9.89558e-11
1.01325e-10
1.03745e-10
1.06217e-10
1.08741e-10
1.1132e-10
1.13953e-10
1.16642e-10
1.19387e-10
1.22191e-10
1.25053e-10
1.27974e-10
1.30957e-10
1.34001e-10
1.37108e-10
1.40279e-10
1.43515e-10
1.46818e-10
1.50187e-10
1.53625e-10
1.57132e-10
1.6071e-10
1.6436e-10
1.68083e-10
1.7188e-10
1.75752e-10
1.79701e-10
1.83727e-10
1.87832e-10
1.92018e-10
1.96285e-10
2.00635e-10
2.05069e-10
2.09588e-10
2.14193e-10
2.18886e-10
2.23669e-10
2.28542e-10
2.33506e-10
2.38564e-10
2.43716e-10
2.48964e-10
2.5431e-10
2.59753e-10
2.65297e-10
2.70942e-10
2.76689e-10
2.82541e-10
2.88498e-10
2.94562e-10
3.00734e-10
3.07016e-10
3.13409e-10
3.19914e-10
3.26534e-10
3.33268e-10
3.4012e-10
3.4709e-10
3.54179e-10
3.61389e-10
3.68722e-10
3.76179e-10
3.83761e-10
3.91469e-10
3.99306e-10
4.07272e-10
4.15369e-10
4.23598e-10
4.31961e-10
4.40459e-10
4.49092e-10
4.57863e-10
4.66773e-10
4.75823e-10
4.85014e-10
4.94347e-10
5.03824e-10
5.13446e-10
5.23213e-10
5.33126e-10
5.43188e-10
5.53398e-10
5.63757e-10
5.74266e-10
5.84926e-10
5.95738e-10
6.06701e-10
6.17817e-10
6.29085e-10
6.40506e-10
6.5208e-10
6.63807e-10
6.75686e-10
6.87716e-10
6.99898e-10
7.12231e-10
7.24713e-10
7.37342e-10
7.50118e-10
7.63039e-10
7.76101e-10
7.89302e-10
8.0264e-10
8.1611e-10
8.2971e-10
8.43433e-10
8.57275e-10
8.71231e-10
8.85293e-10
8.99455e-10
9.13709e-10
9.28045e-10
9.42453e-10
9.56923e-10
9.71442e-10
9.85996e-10
1.00057e-09
1.01515e-09
1.02971e-09
1.04424e-09
1.05871e-09
1.07309e-09
1.08737e-09
1.10151e-09
1.11547e-09
1.12922e-09
1.14273e-09
1.15594e-09
1.16881e-09
1.18129e-09
1.19332e-09
1.20484e-09
1.21577e-09
1.22605e-09
1.23559e-09
1.2443e-09
1.2521e-09
1.25887e-09
1.26452e-09
1.26893e-09
1.27198e-09
1.27357e-09
2.24955e-16
7.21549e-16
1.26837e-15
1.86826e-15
2.52325e-15
3.23511e-15
4.00574e-15
4.83733e-15
5.73242e-15
6.69382e-15
7.72464e-15
8.82818e-15
1.00079e-14
1.12675e-14
1.26105e-14
1.4041e-14
1.55627e-14
1.71798e-14
1.88962e-14
2.07162e-14
2.2644e-14
2.4684e-14
2.68406e-14
2.91184e-14
3.15219e-14
3.40559e-14
3.67252e-14
3.95348e-14
4.24898e-14
4.55952e-14
4.88564e-14
5.22789e-14
5.58681e-14
5.96297e-14
6.35696e-14
6.76936e-14
7.2008e-14
7.65188e-14
8.12325e-14
8.61557e-14
9.12949e-14
9.66572e-14
1.02249e-13
1.08079e-13
1.14153e-13
1.20479e-13
1.27065e-13
1.33919e-13
1.41049e-13
1.48463e-13
1.5617e-13
1.64178e-13
1.72497e-13
1.81136e-13
1.90104e-13
1.99412e-13
2.09068e-13
2.19083e-13
2.29468e-13
2.40234e-13
2.51391e-13
2.6295e-13
2.74925e-13
2.87325e-13
3.00164e-13
3.13455e-13
3.27209e-13
3.41442e-13
3.56165e-13
3.71393e-13
3.8714e-13
4.03422e-13
4.20253e-13
4.37649e-13
4.55626e-13
4.742e-13
4.93388e-13
5.13208e-13
5.33678e-13
5.54815e-13
5.76638e-13
5.99167e-13
6.22421e-13
6.46421e-13
6.71188e-13
6.96744e-13
7.23109e-13
7.50308e-13
7.78363e-13
8.07298e-13
8.37138e-13
8.67907e-13
8.99633e-13
9.32341e-13
9.66059e-13
1.00081e-12
1.03664e-12
1.07356e-12
1.1116e-12
1.15081e-12
1.1912e-12
1.23282e-12
1.27569e-12
1.31986e-12
1.36535e-12
1.4122e-12
1.46046e-12
1.51016e-12
1.56134e-12
1.61403e-12
1.66829e-12
1.72416e-12
1.78167e-12
1.84088e-12
1.90182e-12
1.96456e-12
2.02913e-12
2.09559e-12
2.16398e-12
2.23437e-12
2.3068e-12
2.38133e-12
2.45802e-12
2.53692e-12
2.6181e-12
2.70162e-12
2.78753e-12
2.87591e-12
2.96682e-12
3.06033e-12
3.15651e-12
3.25542e-12
3.35715e-12
3.46177e-12
3.56935e-12
3.67998e-12
3.79373e-12
3.9107e-12
4.03095e-12
4.15458e-12
4.28169e-12
4.41235e-12
4.54667e-12
4.68474e-12
4.82666e-12
4.97253e-12
5.12246e-12
5.27654e-12
5.43489e-12
5.59763e-12
5.76485e-12
5.93669e-12
6.11325e-12
6.29466e-12
6.48105e-12
6.67255e-12
6.86928e-12
7.07138e-12
7.27898e-12
7.49224e-12
7.71128e-12
7.93627e-12
8.16734e-12
8.40466e-12
8.64838e-12
8.89866e-12
9.15568e-12
9.41959e-12
9.69057e-12
9.9688e-12
1.02545e-11
1.05477e-11
1.08488e-11
1.11579e-11
1.14751e-11
1.18008e-11
1.2135e-11
1.24781e-11
1.28302e-11
1.31916e-11
1.35624e-11
1.39429e-11
1.43334e-11
1.47341e-11
1.51451e-11
1.55669e-11
1.59996e-11
1.64435e-11
1.68988e-11
1.73659e-11
1.7845e-11
1.83364e-11
1.88405e-11
1.93573e-11
1.98874e-11
2.0431e-11
2.09884e-11
2.15599e-11
2.21459e-11
2.27467e-11
2.33626e-11
2.39941e-11
2.46414e-11
2.53048e-11
2.59849e-11
2.66819e-11
2.73963e-11
2.81284e-11
2.88786e-11
2.96474e-11
3.04351e-11
3.12422e-11
3.20691e-11
3.29162e-11
3.37841e-11
3.46731e-11
3.55837e-11
3.65164e-11
3.74717e-11
3.845e-11
3.94519e-11
4.04779e-11
4.15285e-11
4.26041e-11
4.37055e-11
4.4833e-11
4.59872e-11
4.71688e-11
4.83783e-11
4.96163e-11
5.08833e-11
5.218e-11
5.35069e-11
5.48648e-11
5.62543e-11
5.76759e-11
5.91304e-11
6.06184e-11
6.21406e-11
6.36977e-11
6.52904e-11
6.69194e-11
6.85854e-11
7.02891e-11
7.20313e-11
7.38128e-11
7.56343e-11
7.74966e-11
7.94005e-11
8.13468e-11
8.33363e-11
8.53698e-11
8.74482e-11
8.95723e-11
9.1743e-11
9.39611e-11
9.62276e-11
9.85433e-11
1.00909e-10
1.03326e-10
1.05795e-10
1.08317e-10
1.10893e-10
1.13524e-10
1.1621e-10
1.18954e-10
1.21755e-10
1.24615e-10
1.27535e-10
1.30516e-10
1.3356e-10
1.36666e-10
1.39836e-10
1.43072e-10
1.46374e-10
1.49744e-10
1.53182e-10
1.56691e-10
1.6027e-10
1.63921e-10
1.67645e-10
1.71445e-10
1.75319e-10
1.79271e-10
1.83301e-10
1.8741e-10
1.916e-10
1.95872e-10
2.00227e-10
2.04666e-10
2.09191e-10
2.13803e-10
2.18504e-10
2.23294e-10
2.28176e-10
2.33149e-10
2.38217e-10
2.43379e-10
2.48638e-10
2.53995e-10
2.59451e-10
2.65008e-10
2.70667e-10
2.76429e-10
2.82296e-10
2.8827e-10
2.94351e-10
3.00541e-10
3.06842e-10
3.13255e-10
3.19782e-10
3.26423e-10
3.33181e-10
3.40057e-10
3.47052e-10
3.54168e-10
3.61406e-10
3.68768e-10
3.76255e-10
3.83869e-10
3.9161e-10
3.99481e-10
4.07483e-10
4.15617e-10
4.23885e-10
4.32288e-10
4.40828e-10
4.49505e-10
4.58322e-10
4.67279e-10
4.76378e-10
4.8562e-10
4.95007e-10
5.04539e-10
5.14217e-10
5.24044e-10
5.34019e-10
5.44145e-10
5.54422e-10
5.6485e-10
5.75431e-10
5.86166e-10
5.97055e-10
6.08099e-10
6.19299e-10
6.30654e-10
6.42166e-10
6.53834e-10
6.65658e-10
6.77639e-10
6.89776e-10
7.02068e-10
7.14516e-10
7.27118e-10
7.39873e-10
7.52779e-10
7.65836e-10
7.79041e-10
7.92391e-10
8.05885e-10
8.19519e-10
8.33289e-10
8.47192e-10
8.61223e-10
8.75377e-10
8.89648e-10
9.04029e-10
9.18513e-10
9.33093e-10
9.47759e-10
9.62501e-10
9.77308e-10
9.92167e-10
1.00707e-09
1.02199e-09
1.03691e-09
1.05183e-09
1.06671e-09
1.08154e-09
1.09629e-09
1.11093e-09
1.12543e-09
1.13976e-09
1.15389e-09
1.16776e-09
1.18134e-09
1.19459e-09
1.20744e-09
1.21983e-09
1.23172e-09
1.24301e-09
1.25365e-09
1.26354e-09
1.27259e-09
1.28071e-09
1.2878e-09
1.29372e-09
1.29837e-09
1.30161e-09
1.30331e-09
2.20846e-16
7.08157e-16
1.244e-15
1.8315e-15
2.47347e-15
3.1723e-15
3.93034e-15
4.75006e-15
5.63412e-15
6.58542e-15
7.60707e-15
8.70236e-15
9.87475e-15
1.11278e-14
1.24653e-14
1.3891e-14
1.54088e-14
1.70228e-14
1.8737e-14
2.05556e-14
2.24829e-14
2.45233e-14
2.66813e-14
2.89615e-14
3.13685e-14
3.39071e-14
3.65823e-14
3.9399e-14
4.23624e-14
4.54778e-14
4.87504e-14
5.2186e-14
5.579e-14
5.95683e-14
6.35267e-14
6.76713e-14
7.20083e-14
7.65441e-14
8.12851e-14
8.6238e-14
9.14097e-14
9.6807e-14
1.02437e-13
1.08307e-13
1.14425e-13
1.20799e-13
1.27435e-13
1.34343e-13
1.41531e-13
1.49006e-13
1.56779e-13
1.64857e-13
1.7325e-13
1.81967e-13
1.91018e-13
2.00413e-13
2.10162e-13
2.20275e-13
2.30763e-13
2.41637e-13
2.52907e-13
2.64587e-13
2.76687e-13
2.8922e-13
3.02197e-13
3.15633e-13
3.29539e-13
3.4393e-13
3.5882e-13
3.74222e-13
3.90151e-13
4.06622e-13
4.23651e-13
4.41253e-13
4.59445e-13
4.78243e-13
4.97664e-13
5.17727e-13
5.38449e-13
5.59849e-13
5.81945e-13
6.04758e-13
6.28307e-13
6.52613e-13
6.77698e-13
7.03583e-13
7.30291e-13
7.57844e-13
7.86267e-13
8.15583e-13
8.45818e-13
8.76997e-13
9.09147e-13
9.42294e-13
9.76466e-13
1.01169e-12
1.048e-12
1.08542e-12
1.12399e-12
1.16373e-12
1.20468e-12
1.24687e-12
1.29034e-12
1.33512e-12
1.38125e-12
1.42876e-12
1.47769e-12
1.52809e-12
1.57999e-12
1.63343e-12
1.68846e-12
1.74512e-12
1.80345e-12
1.8635e-12
1.92532e-12
1.98895e-12
2.05445e-12
2.12186e-12
2.19124e-12
2.26265e-12
2.33612e-12
2.41174e-12
2.48954e-12
2.56959e-12
2.65195e-12
2.73668e-12
2.82385e-12
2.91352e-12
3.00576e-12
3.10064e-12
3.19823e-12
3.29861e-12
3.40183e-12
3.50799e-12
3.61717e-12
3.72943e-12
3.84486e-12
3.96356e-12
4.08559e-12
4.21106e-12
4.34006e-12
4.47267e-12
4.60899e-12
4.74912e-12
4.89316e-12
5.0412e-12
5.19337e-12
5.34976e-12
5.51049e-12
5.67566e-12
5.84539e-12
6.01981e-12
6.19903e-12
6.38317e-12
6.57237e-12
6.76675e-12
6.96645e-12
7.1716e-12
7.38234e-12
7.59882e-12
7.82118e-12
8.04957e-12
8.28415e-12
8.52507e-12
8.77249e-12
9.02658e-12
9.2875e-12
9.55543e-12
9.83053e-12
1.0113e-11
1.0403e-11
1.07008e-11
1.10064e-11
1.13202e-11
1.16423e-11
1.1973e-11
1.23124e-11
1.26607e-11
1.30182e-11
1.33851e-11
1.37616e-11
1.4148e-11
1.45445e-11
1.49513e-11
1.53687e-11
1.5797e-11
1.62363e-11
1.66871e-11
1.71495e-11
1.76238e-11
1.81103e-11
1.86093e-11
1.91211e-11
1.9646e-11
2.01843e-11
2.07363e-11
2.13024e-11
2.18828e-11
2.24779e-11
2.3088e-11
2.37136e-11
2.43548e-11
2.50122e-11
2.5686e-11
2.63767e-11
2.70846e-11
2.78102e-11
2.85537e-11
2.93157e-11
3.00965e-11
3.08965e-11
3.17163e-11
3.25562e-11
3.34167e-11
3.42981e-11
3.52011e-11
3.61261e-11
3.70735e-11
3.80438e-11
3.90376e-11
4.00553e-11
4.10975e-11
4.21647e-11
4.32574e-11
4.43761e-11
4.55215e-11
4.66941e-11
4.78944e-11
4.91231e-11
5.03807e-11
5.16679e-11
5.29852e-11
5.43333e-11
5.57128e-11
5.71244e-11
5.85688e-11
6.00465e-11
6.15583e-11
6.31048e-11
6.46868e-11
6.6305e-11
6.79601e-11
6.96528e-11
7.13839e-11
7.31542e-11
7.49643e-11
7.68151e-11
7.87074e-11
8.0642e-11
8.26196e-11
8.46412e-11
8.67076e-11
8.88196e-11
9.0978e-11
9.31839e-11
9.54379e-11
9.77412e-11
1.00094e-10
1.02499e-10
1.04955e-10
1.07464e-10
1.10027e-10
1.12645e-10
1.15318e-10
1.18049e-10
1.20837e-10
1.23684e-10
1.26591e-10
1.29559e-10
1.32589e-10
1.35682e-10
1.38839e-10
1.42062e-10
1.45351e-10
1.48707e-10
1.52133e-10
1.55628e-10
1.59194e-10
1.62832e-10
1.66543e-10
1.70329e-10
1.74191e-10
1.7813e-10
1.82147e-10
1.86244e-10
1.90421e-10
1.94681e-10
1.99024e-10
2.03451e-10
2.07964e-10
2.12565e-10
2.17254e-10
2.22033e-10
2.26903e-10
2.31866e-10
2.36923e-10
2.42076e-10
2.47325e-10
2.52672e-10
2.58119e-10
2.63667e-10
2.69317e-10
2.75071e-10
2.80931e-10
2.86897e-10
2.92971e-10
2.99155e-10
3.0545e-10
3.11858e-10
3.18379e-10
3.25017e-10
3.31771e-10
3.38644e-10
3.45636e-10
3.52751e-10
3.59988e-10
3.67349e-10
3.74837e-10
3.82452e-10
3.90196e-10
3.9807e-10
4.06076e-10
4.14215e-10
4.22489e-10
4.30899e-10
4.39447e-10
4.48134e-10
4.56961e-10
4.6593e-10
4.75041e-10
4.84298e-10
4.937e-10
5.03249e-10
5.12947e-10
5.22794e-10
5.32791e-10
5.42941e-10
5.53243e-10
5.63699e-10
5.7431e-10
5.85077e-10
5.96e-10
6.07081e-10
6.18319e-10
6.29716e-10
6.41272e-10
6.52987e-10
6.64862e-10
6.76896e-10
6.8909e-10
7.01444e-10
7.13956e-10
7.26626e-10
7.39454e-10
7.52439e-10
7.65578e-10
7.78871e-10
7.92315e-10
8.05909e-10
8.19649e-10
8.33533e-10
8.47557e-10
8.61716e-10
8.76007e-10
8.90425e-10
9.04963e-10
9.19615e-10
9.34374e-10
9.49231e-10
9.64179e-10
9.79206e-10
9.94301e-10
1.00945e-09
1.02465e-09
1.03987e-09
1.05509e-09
1.07032e-09
1.08551e-09
1.10065e-09
1.11571e-09
1.13067e-09
1.14549e-09
1.16015e-09
1.1746e-09
1.1888e-09
1.20272e-09
1.2163e-09
1.22948e-09
1.24221e-09
1.25443e-09
1.26607e-09
1.27703e-09
1.28725e-09
1.29663e-09
1.30506e-09
1.31244e-09
1.31864e-09
1.32352e-09
1.32695e-09
1.32875e-09
2.17209e-16
6.96261e-16
1.22235e-15
1.79856e-15
2.42807e-15
3.11382e-15
3.85866e-15
4.66542e-15
5.53705e-15
6.47661e-15
7.48728e-15
8.57241e-15
9.73544e-15
1.098e-14
1.23096e-14
1.37282e-14
1.52397e-14
1.68479e-14
1.85571e-14
2.03713e-14
2.22949e-14
2.43324e-14
2.6488e-14
2.87666e-14
3.11729e-14
3.37115e-14
3.63876e-14
3.92062e-14
4.21725e-14
4.52918e-14
4.85695e-14
5.20113e-14
5.56229e-14
5.941e-14
6.33788e-14
6.75352e-14
7.18857e-14
7.64366e-14
8.11945e-14
8.61662e-14
9.13586e-14
9.67788e-14
1.02434e-13
1.08331e-13
1.14479e-13
1.20885e-13
1.27556e-13
1.34501e-13
1.41729e-13
1.49248e-13
1.57066e-13
1.65194e-13
1.73639e-13
1.82413e-13
1.91524e-13
2.00982e-13
2.10798e-13
2.20982e-13
2.31545e-13
2.42498e-13
2.53853e-13
2.65621e-13
2.77814e-13
2.90445e-13
3.03526e-13
3.17069e-13
3.31089e-13
3.456e-13
3.60614e-13
3.76146e-13
3.92212e-13
4.08826e-13
4.26005e-13
4.43763e-13
4.62118e-13
4.81086e-13
5.00685e-13
5.20932e-13
5.41847e-13
5.63447e-13
5.85752e-13
6.08781e-13
6.32556e-13
6.57097e-13
6.82426e-13
7.08564e-13
7.35534e-13
7.6336e-13
7.92066e-13
8.21676e-13
8.52216e-13
8.83711e-13
9.16187e-13
9.49673e-13
9.84197e-13
1.01979e-12
1.05647e-12
1.09428e-12
1.13325e-12
1.17341e-12
1.21479e-12
1.25743e-12
1.30136e-12
1.34662e-12
1.39324e-12
1.44126e-12
1.49072e-12
1.54166e-12
1.59412e-12
1.64814e-12
1.70377e-12
1.76104e-12
1.82001e-12
1.88072e-12
1.94322e-12
2.00755e-12
2.07378e-12
2.14193e-12
2.21208e-12
2.28428e-12
2.35858e-12
2.43503e-12
2.5137e-12
2.59465e-12
2.67793e-12
2.76362e-12
2.85177e-12
2.94245e-12
3.03574e-12
3.13169e-12
3.23039e-12
3.3319e-12
3.4363e-12
3.54367e-12
3.65408e-12
3.76763e-12
3.88438e-12
4.00444e-12
4.12787e-12
4.25478e-12
4.38526e-12
4.51939e-12
4.65728e-12
4.79903e-12
4.94473e-12
5.09449e-12
5.24842e-12
5.40662e-12
5.56921e-12
5.7363e-12
5.90801e-12
6.08445e-12
6.26576e-12
6.45205e-12
6.64345e-12
6.8401e-12
7.04214e-12
7.24969e-12
7.4629e-12
7.68192e-12
7.90689e-12
8.13797e-12
8.3753e-12
8.61906e-12
8.86939e-12
9.12648e-12
9.39048e-12
9.66157e-12
9.93993e-12
1.02257e-11
1.05192e-11
1.08205e-11
1.11298e-11
1.14473e-11
1.17732e-11
1.21078e-11
1.24512e-11
1.28037e-11
1.31655e-11
1.35367e-11
1.39178e-11
1.43088e-11
1.471e-11
1.51217e-11
1.55441e-11
1.59775e-11
1.64221e-11
1.68783e-11
1.73462e-11
1.78263e-11
1.83186e-11
1.88237e-11
1.93417e-11
1.98729e-11
2.04177e-11
2.09764e-11
2.15493e-11
2.21367e-11
2.27391e-11
2.33566e-11
2.39897e-11
2.46388e-11
2.53042e-11
2.59862e-11
2.66853e-11
2.74018e-11
2.81362e-11
2.88889e-11
2.96601e-11
3.04505e-11
3.12604e-11
3.20902e-11
3.29404e-11
3.38114e-11
3.47037e-11
3.56178e-11
3.65542e-11
3.75132e-11
3.84955e-11
3.95016e-11
4.05319e-11
4.15869e-11
4.26673e-11
4.37735e-11
4.49062e-11
4.60658e-11
4.72529e-11
4.84681e-11
4.97121e-11
5.09854e-11
5.22886e-11
5.36223e-11
5.49873e-11
5.6384e-11
5.78133e-11
5.92757e-11
6.07719e-11
6.23027e-11
6.38686e-11
6.54705e-11
6.71091e-11
6.8785e-11
7.0499e-11
7.22519e-11
7.40445e-11
7.58775e-11
7.77517e-11
7.96679e-11
8.1627e-11
8.36298e-11
8.5677e-11
8.77696e-11
8.99084e-11
9.20944e-11
9.43283e-11
9.66111e-11
9.89437e-11
1.01327e-10
1.03762e-10
1.0625e-10
1.08791e-10
1.11387e-10
1.14038e-10
1.16746e-10
1.19512e-10
1.22336e-10
1.2522e-10
1.28164e-10
1.3117e-10
1.34239e-10
1.37373e-10
1.40571e-10
1.43835e-10
1.47167e-10
1.50567e-10
1.54036e-10
1.57577e-10
1.61189e-10
1.64875e-10
1.68635e-10
1.7247e-10
1.76383e-10
1.80373e-10
1.84443e-10
1.88594e-10
1.92826e-10
1.97141e-10
2.01541e-10
2.06027e-10
2.106e-10
2.15261e-10
2.20012e-10
2.24854e-10
2.29789e-10
2.34818e-10
2.39942e-10
2.45163e-10
2.50481e-10
2.559e-10
2.61419e-10
2.67041e-10
2.72767e-10
2.78598e-10
2.84536e-10
2.90582e-10
2.96738e-10
3.03005e-10
3.09384e-10
3.15878e-10
3.22488e-10
3.29214e-10
3.3606e-10
3.43025e-10
3.50113e-10
3.57323e-10
3.64659e-10
3.7212e-10
3.79709e-10
3.87428e-10
3.95277e-10
4.03259e-10
4.11374e-10
4.19625e-10
4.28012e-10
4.36537e-10
4.45202e-10
4.54008e-10
4.62957e-10
4.72049e-10
4.81287e-10
4.90671e-10
5.00203e-10
5.09885e-10
5.19717e-10
5.297e-10
5.39837e-10
5.50128e-10
5.60574e-10
5.71176e-10
5.81936e-10
5.92853e-10
6.0393e-10
6.15166e-10
6.26563e-10
6.38121e-10
6.49841e-10
6.61722e-10
6.73765e-10
6.85971e-10
6.98339e-10
7.1087e-10
7.23561e-10
7.36414e-10
7.49427e-10
7.626e-10
7.7593e-10
7.89416e-10
8.03057e-10
8.1685e-10
8.30793e-10
8.44882e-10
8.59114e-10
8.73485e-10
8.8799e-10
9.02625e-10
9.17384e-10
9.3226e-10
9.47246e-10
9.62333e-10
9.77514e-10
9.92777e-10
1.00811e-09
1.02351e-09
1.03895e-09
1.05442e-09
1.0699e-09
1.08538e-09
1.10083e-09
1.11623e-09
1.13156e-09
1.14679e-09
1.16189e-09
1.17682e-09
1.19155e-09
1.20604e-09
1.22024e-09
1.2341e-09
1.24758e-09
1.26061e-09
1.27312e-09
1.28505e-09
1.29632e-09
1.30683e-09
1.3165e-09
1.32521e-09
1.33285e-09
1.3393e-09
1.3444e-09
1.34799e-09
1.34989e-09
2.14162e-16
6.8629e-16
1.20423e-15
1.7709e-15
2.38961e-15
3.06367e-15
3.79634e-15
4.59086e-15
5.45047e-15
6.37844e-15
7.3781e-15
8.45285e-15
9.60617e-15
1.08416e-14
1.21629e-14
1.35737e-14
1.50779e-14
1.66795e-14
1.83825e-14
2.01911e-14
2.21096e-14
2.41423e-14
2.62939e-14
2.85689e-14
3.09721e-14
3.35083e-14
3.61825e-14
3.89999e-14
4.19657e-14
4.50853e-14
4.83641e-14
5.18079e-14
5.54223e-14
5.92132e-14
6.31868e-14
6.73493e-14
7.17068e-14
7.62661e-14
8.10337e-14
8.60164e-14
9.12213e-14
9.66555e-14
1.02326e-13
1.08241e-13
1.14408e-13
1.20834e-13
1.27528e-13
1.34498e-13
1.41753e-13
1.49301e-13
1.57151e-13
1.65312e-13
1.73794e-13
1.82606e-13
1.91759e-13
2.01261e-13
2.11124e-13
2.21359e-13
2.31975e-13
2.42985e-13
2.54399e-13
2.66231e-13
2.7849e-13
2.91191e-13