/*--------------------------------*- C++ -*----------------------------------*\
  =========                 |
  \\      /  F ield         | OpenFOAM: The Open Source CFD Toolbox
   \\    /   O peration     | Website:  https://openfoam.org
    \\  /    A nd           | Version:  dev
     \\/     M anipulation  |
\*---------------------------------------------------------------------------*/
FoamFile
{
    format      ascii;
    class       volScalarField;
    location    "0.26";
    object      beta;
}
// * * * * * * * * * * * * * * * * * * * * * * * * * * * * * * * * * * * * * //

dimensions      [0 0 0 0 0 0 0];

internalField   uniform 0;

boundaryField
{
    frontAndBack
    {
        type            empty;
    }
    inlet
    {
        type            calculated;
        value           uniform 0;
    }
    outlet
    {
        type            calculated;
        value           uniform 0;
    }
    substrate
    {
        type            calculated;
        value           nonuniform List<scalar> 
400
(
0.00276608
0.00290565
0.00300804
0.00310163
0.00319057
0.00327522
0.00335656
0.00343551
0.00351267
0.0035885
0.00366334
0.00373745
0.00381104
0.00388424
0.00395719
0.00402997
0.00410263
0.00417522
0.00424777
0.0043203
0.0043928
0.00446528
0.00453773
0.00461014
0.00468248
0.00475475
0.00482691
0.00489895
0.00497084
0.00504256
0.00511409
0.00518539
0.00525644
0.00532723
0.00539772
0.00546788
0.00553771
0.00560716
0.00567623
0.00574489
0.00581311
0.00588088
0.00594817
0.00601498
0.00608127
0.00614704
0.00621226
0.00627692
0.006341
0.00640449
0.00646738
0.00652964
0.00659128
0.00665228
0.00671263
0.00677231
0.00683133
0.00688966
0.00694731
0.00700426
0.00706051
0.00711606
0.0071709
0.00722502
0.00727843
0.00733111
0.00738307
0.00743431
0.00748481
0.00753459
0.00758365
0.00763197
0.00767957
0.00772645
0.0077726
0.00781803
0.00786275
0.00790674
0.00795003
0.00799261
0.00803449
0.00807566
0.00811614
0.00815594
0.00819505
0.00823348
0.00827124
0.00830833
0.00834476
0.00838054
0.00841567
0.00845016
0.00848402
0.00851725
0.00854986
0.00858186
0.00861326
0.00864406
0.00867428
0.00870391
0.00873297
0.00876146
0.0087894
0.00881678
0.00884363
0.00886994
0.00889572
0.00892099
0.00894575
0.00897
0.00899377
0.00901704
0.00903984
0.00906217
0.00908403
0.00910544
0.00912641
0.00914693
0.00916702
0.00918669
0.00920594
0.00922478
0.00924322
0.00926126
0.00927891
0.00929619
0.00931309
0.00932962
0.0093458
0.00936162
0.00937709
0.00939223
0.00940703
0.0094215
0.00943565
0.00944949
0.00946302
0.00947625
0.00948918
0.00950182
0.00951418
0.00952625
0.00953806
0.00954959
0.00956087
0.00957188
0.00958265
0.00959316
0.00960344
0.00961348
0.00962328
0.00963286
0.00964222
0.00965136
0.00966029
0.00966901
0.00967752
0.00968583
0.00969395
0.00970188
0.00970962
0.00971717
0.00972455
0.00973175
0.00973878
0.00974564
0.00975233
0.00975887
0.00976524
0.00977147
0.00977754
0.00978346
0.00978924
0.00979488
0.00980038
0.00980575
0.00981099
0.00981609
0.00982107
0.00982593
0.00983067
0.00983528
0.00983979
0.00984418
0.00984846
0.00985263
0.0098567
0.00986067
0.00986453
0.0098683
0.00987197
0.00987555
0.00987903
0.00988243
0.00988574
0.00988896
0.0098921
0.00989516
0.00989814
0.00990104
0.00990387
0.00990662
0.0099093
0.00991191
0.00991446
0.00991693
0.00991934
0.00992168
0.00992396
0.00992618
0.00992835
0.00993045
0.0099325
0.00993449
0.00993642
0.00993831
0.00994014
0.00994192
0.00994366
0.00994535
0.00994699
0.00994858
0.00995013
0.00995164
0.0099531
0.00995453
0.00995591
0.00995726
0.00995857
0.00995984
0.00996107
0.00996227
0.00996344
0.00996457
0.00996567
0.00996674
0.00996778
0.00996879
0.00996977
0.00997072
0.00997164
0.00997254
0.00997341
0.00997425
0.00997507
0.00997587
0.00997664
0.00997739
0.00997811
0.00997882
0.0099795
0.00998016
0.00998081
0.00998143
0.00998204
0.00998262
0.00998319
0.00998374
0.00998428
0.0099848
0.0099853
0.00998579
0.00998626
0.00998672
0.00998716
0.00998759
0.00998801
0.00998841
0.0099888
0.00998918
0.00998954
0.0099899
0.00999024
0.00999058
0.0099909
0.00999121
0.00999151
0.0099918
0.00999209
0.00999236
0.00999262
0.00999288
0.00999313
0.00999337
0.0099936
0.00999382
0.00999404
0.00999425
0.00999445
0.00999465
0.00999484
0.00999502
0.0099952
0.00999537
0.00999554
0.0099957
0.00999585
0.009996
0.00999614
0.00999628
0.00999642
0.00999655
0.00999667
0.0099968
0.00999691
0.00999703
0.00999714
0.00999724
0.00999734
0.00999744
0.00999754
0.00999763
0.00999772
0.0099978
0.00999788
0.00999796
0.00999804
0.00999811
0.00999819
0.00999825
0.00999832
0.00999838
0.00999845
0.00999851
0.00999856
0.00999862
0.00999867
0.00999872
0.00999877
0.00999882
0.00999886
0.00999891
0.00999895
0.00999899
0.00999903
0.00999907
0.00999911
0.00999914
0.00999918
0.00999921
0.00999924
0.00999927
0.0099993
0.00999933
0.00999935
0.00999938
0.00999941
0.00999943
0.00999945
0.00999947
0.0099995
0.00999952
0.00999954
0.00999955
0.00999957
0.00999959
0.00999961
0.00999962
0.00999964
0.00999965
0.00999967
0.00999968
0.0099997
0.00999971
0.00999972
0.00999973
0.00999974
0.00999975
0.00999976
0.00999977
0.00999978
0.00999979
0.0099998
0.00999981
0.00999982
0.00999983
0.00999983
0.00999984
0.00999985
0.00999985
0.00999986
0.00999987
0.00999987
0.00999988
0.00999988
0.00999989
0.00999989
0.0099999
0.0099999
0.0099999
0.00999991
0.00999991
0.00999991
0.00999992
0.00999992
0.00999992
0.00999992
0.00999992
0.00999992
0.00999992
)
;
    }
    Wall
    {
        type            calculated;
        value           nonuniform List<scalar> 
400
(
0.00276608
0.00290565
0.00300803
0.00310162
0.00319056
0.00327522
0.00335658
0.00343552
0.00351269
0.00358852
0.00366337
0.00373748
0.00381106
0.00388427
0.00395722
0.00402999
0.00410265
0.00417524
0.00424779
0.00432032
0.00439282
0.0044653
0.00453774
0.00461015
0.00468249
0.00475475
0.00482692
0.00489895
0.00497085
0.00504256
0.00511409
0.00518539
0.00525644
0.00532722
0.00539771
0.00546787
0.0055377
0.00560715
0.00567622
0.00574487
0.0058131
0.00588086
0.00594816
0.00601496
0.00608126
0.00614702
0.00621224
0.0062769
0.00634098
0.00640447
0.00646736
0.00652963
0.00659127
0.00665226
0.00671261
0.00677229
0.00683131
0.00688964
0.00694729
0.00700424
0.0070605
0.00711604
0.00717088
0.007225
0.00727841
0.00733109
0.00738305
0.00743428
0.00748479
0.00753457
0.00758363
0.00763195
0.00767955
0.00772643
0.00777258
0.00781801
0.00786273
0.00790672
0.00795001
0.00799259
0.00803447
0.00807564
0.00811613
0.00815592
0.00819503
0.00823346
0.00827122
0.00830831
0.00834474
0.00838052
0.00841565
0.00845014
0.008484
0.00851723
0.00854985
0.00858185
0.00861325
0.00864405
0.00867426
0.00870389
0.00873295
0.00876145
0.00878938
0.00881677
0.00884361
0.00886993
0.00889571
0.00892098
0.00894574
0.00896999
0.00899375
0.00901703
0.00903983
0.00906216
0.00908402
0.00910543
0.0091264
0.00914692
0.00916701
0.00918668
0.00920593
0.00922477
0.00924321
0.00926125
0.00927891
0.00929618
0.00931308
0.00932962
0.00934579
0.00936161
0.00937708
0.00939222
0.00940702
0.00942149
0.00943565
0.00944948
0.00946301
0.00947624
0.00948917
0.00950181
0.00951417
0.00952625
0.00953805
0.00954959
0.00956086
0.00957188
0.00958264
0.00959316
0.00960343
0.00961347
0.00962328
0.00963286
0.00964222
0.00965136
0.00966028
0.009669
0.00967751
0.00968583
0.00969395
0.00970187
0.00970961
0.00971717
0.00972454
0.00973174
0.00973877
0.00974563
0.00975233
0.00975886
0.00976524
0.00977146
0.00977753
0.00978346
0.00978924
0.00979488
0.00980038
0.00980575
0.00981098
0.00981609
0.00982107
0.00982593
0.00983066
0.00983528
0.00983978
0.00984418
0.00984846
0.00985263
0.0098567
0.00986066
0.00986453
0.00986829
0.00987197
0.00987554
0.00987903
0.00988243
0.00988574
0.00988896
0.0098921
0.00989516
0.00989814
0.00990104
0.00990387
0.00990662
0.0099093
0.00991191
0.00991445
0.00991693
0.00991934
0.00992168
0.00992396
0.00992618
0.00992834
0.00993045
0.00993249
0.00993448
0.00993642
0.00993831
0.00994014
0.00994192
0.00994366
0.00994534
0.00994698
0.00994858
0.00995013
0.00995164
0.0099531
0.00995453
0.00995591
0.00995726
0.00995857
0.00995984
0.00996107
0.00996227
0.00996344
0.00996457
0.00996567
0.00996674
0.00996778
0.00996879
0.00996977
0.00997072
0.00997164
0.00997254
0.00997341
0.00997425
0.00997507
0.00997586
0.00997664
0.00997739
0.00997811
0.00997882
0.0099795
0.00998016
0.00998081
0.00998143
0.00998204
0.00998262
0.00998319
0.00998374
0.00998428
0.0099848
0.0099853
0.00998579
0.00998626
0.00998672
0.00998716
0.00998759
0.00998801
0.00998841
0.0099888
0.00998918
0.00998954
0.0099899
0.00999024
0.00999057
0.0099909
0.00999121
0.00999151
0.0099918
0.00999208
0.00999236
0.00999262
0.00999288
0.00999313
0.00999337
0.0099936
0.00999382
0.00999404
0.00999425
0.00999445
0.00999465
0.00999484
0.00999502
0.0099952
0.00999537
0.00999554
0.0099957
0.00999585
0.009996
0.00999614
0.00999628
0.00999642
0.00999655
0.00999667
0.0099968
0.00999691
0.00999703
0.00999714
0.00999724
0.00999734
0.00999744
0.00999754
0.00999763
0.00999772
0.0099978
0.00999788
0.00999796
0.00999804
0.00999811
0.00999819
0.00999825
0.00999832
0.00999838
0.00999845
0.0099985
0.00999856
0.00999862
0.00999867
0.00999872
0.00999877
0.00999882
0.00999886
0.00999891
0.00999895
0.00999899
0.00999903
0.00999907
0.00999911
0.00999914
0.00999918
0.00999921
0.00999924
0.00999927
0.0099993
0.00999933
0.00999935
0.00999938
0.0099994
0.00999943
0.00999945
0.00999947
0.0099995
0.00999952
0.00999954
0.00999955
0.00999957
0.00999959
0.00999961
0.00999962
0.00999964
0.00999965
0.00999967
0.00999968
0.0099997
0.00999971
0.00999972
0.00999973
0.00999974
0.00999975
0.00999976
0.00999977
0.00999978
0.00999979
0.0099998
0.00999981
0.00999982
0.00999983
0.00999983
0.00999984
0.00999985
0.00999985
0.00999986
0.00999987
0.00999987
0.00999988
0.00999988
0.00999989
0.00999989
0.0099999
0.0099999
0.0099999
0.00999991
0.00999991
0.00999991
0.00999992
0.00999992
0.00999992
0.00999992
0.00999992
0.00999992
0.00999992
)
;
    }
}


// ************************************************************************* //
