/*--------------------------------*- C++ -*----------------------------------*\
  =========                 |
  \\      /  F ield         | OpenFOAM: The Open Source CFD Toolbox
   \\    /   O peration     | Website:  https://openfoam.org
    \\  /    A nd           | Version:  dev
     \\/     M anipulation  |
\*---------------------------------------------------------------------------*/
FoamFile
{
    format      ascii;
    class       volScalarField;
    location    "0.26";
    object      Exp1;
}
// * * * * * * * * * * * * * * * * * * * * * * * * * * * * * * * * * * * * * //

dimensions      [0 0 0 0 0 0 0];

internalField   uniform 0;

boundaryField
{
    frontAndBack
    {
        type            empty;
    }
    inlet
    {
        type            calculated;
        value           uniform 0;
    }
    outlet
    {
        type            calculated;
        value           uniform 0;
    }
    substrate
    {
        type            calculated;
        value           nonuniform List<scalar> 
400
(
2.66214e-07
8.47782e-07
1.48724e-06
2.18161e-06
2.93103e-06
3.73772e-06
4.60381e-06
5.53149e-06
6.52321e-06
7.58163e-06
8.70954e-06
9.90984e-06
1.11855e-05
1.25394e-05
1.39747e-05
1.54942e-05
1.7101e-05
1.8798e-05
2.05879e-05
2.24738e-05
2.44583e-05
2.65441e-05
2.8734e-05
3.10305e-05
3.34361e-05
3.59535e-05
3.85849e-05
4.13328e-05
4.41994e-05
4.7187e-05
5.02977e-05
5.35334e-05
5.68964e-05
6.03883e-05
6.40111e-05
6.77664e-05
7.16559e-05
7.5681e-05
7.98432e-05
8.41437e-05
8.85839e-05
9.31646e-05
9.7887e-05
0.000102752
0.00010776
0.000112911
0.000118207
0.000123647
0.000129232
0.000134961
0.000140835
0.000146853
0.000153015
0.00015932
0.000165768
0.000172357
0.000179087
0.000185957
0.000192964
0.000200108
0.000207387
0.000214799
0.000222341
0.000230013
0.000237811
0.000245732
0.000253775
0.000261937
0.000270214
0.000278603
0.0002871
0.000295704
0.000304409
0.000313211
0.000322108
0.000331094
0.000340166
0.000349319
0.000358549
0.00036785
0.000377218
0.000386648
0.000396135
0.000405673
0.000415258
0.000424883
0.000434543
0.000444232
0.000453946
0.000463676
0.000473419
0.000483167
0.000492914
0.000502655
0.000512382
0.00052209
0.000531772
0.000541422
0.000551033
0.000560599
0.000570113
0.000579569
0.00058896
0.000598279
0.000607521
0.000616678
0.000625744
0.000634713
0.000643577
0.000652332
0.00066097
0.000669486
0.000677873
0.000686124
0.000694235
0.000702199
0.00071001
0.000717663
0.000725153
0.000732472
0.000739618
0.000746583
0.000753364
0.000759955
0.000766352
0.00077255
0.000778545
0.000784332
0.000789908
0.000795269
0.000800411
0.000805331
0.000810025
0.000814491
0.000818725
0.000822725
0.000826489
0.000830014
0.000833299
0.000836341
0.000839139
0.000841692
0.000843999
0.000846059
0.00084787
0.000849434
0.000850749
0.000851815
0.000852633
0.000853203
0.000853526
0.000853603
0.000853436
0.000853025
0.00085237
0.000851473
0.000850336
0.000848963
0.000847355
0.000845514
0.000843443
0.000841146
0.000838625
0.000835883
0.000832924
0.000829751
0.000826367
0.000822777
0.000818984
0.000814992
0.000810805
0.000806428
0.000801865
0.000797121
0.000792199
0.000787105
0.000781843
0.000776418
0.000770836
0.0007651
0.000759217
0.00075319
0.000747025
0.000740728
0.000734303
0.000727756
0.000721091
0.000714315
0.000707431
0.000700447
0.000693366
0.000686194
0.000678936
0.000671597
0.000664183
0.000656698
0.000649148
0.000641538
0.000633873
0.000626157
0.000618396
0.000610594
0.000602756
0.000594887
0.000586992
0.000579074
0.00057114
0.000563192
0.000555235
0.000547273
0.000539312
0.000531353
0.000523403
0.000515464
0.00050754
0.000499634
0.000491752
0.000483895
0.000476067
0.000468272
0.000460513
0.000452792
0.000445113
0.000437478
0.000429891
0.000422354
0.000414869
0.000407439
0.000400066
0.000392752
0.0003855
0.000378312
0.000371188
0.000364133
0.000357146
0.000350229
0.000343385
0.000336615
0.000329919
0.000323299
0.000316757
0.000310293
0.000303908
0.000297604
0.00029138
0.000285239
0.000279179
0.000273203
0.00026731
0.000261501
0.000255777
0.000250137
0.000244581
0.000239111
0.000233726
0.000228425
0.00022321
0.000218079
0.000213034
0.000208073
0.000203196
0.000198403
0.000193694
0.000189068
0.000184525
0.000180064
0.000175685
0.000171388
0.000167171
0.000163034
0.000158977
0.000154998
0.000151098
0.000147274
0.000143527
0.000139856
0.00013626
0.000132738
0.000129289
0.000125913
0.000122608
0.000119374
0.000116209
0.000113113
0.000110085
0.000107124
0.000104229
0.000101398
9.86318e-05
9.59285e-05
9.32872e-05
9.0707e-05
8.81868e-05
8.57258e-05
8.33228e-05
8.0977e-05
7.86874e-05
7.64529e-05
7.42727e-05
7.21457e-05
7.00709e-05
6.80474e-05
6.60743e-05
6.41505e-05
6.22752e-05
6.04473e-05
5.86661e-05
5.69305e-05
5.52395e-05
5.35925e-05
5.19883e-05
5.04261e-05
4.89051e-05
4.74244e-05
4.59831e-05
4.45803e-05
4.32153e-05
4.18872e-05
4.05951e-05
3.93383e-05
3.81161e-05
3.69275e-05
3.57718e-05
3.46483e-05
3.35562e-05
3.24948e-05
3.14634e-05
3.04612e-05
2.94876e-05
2.85418e-05
2.76231e-05
2.67311e-05
2.58648e-05
2.50238e-05
2.42074e-05
2.34149e-05
2.26459e-05
2.18995e-05
2.11754e-05
2.04729e-05
1.97915e-05
1.91306e-05
1.84897e-05
1.78682e-05
1.72656e-05
1.66815e-05
1.61153e-05
1.55666e-05
1.50349e-05
1.45197e-05
1.40206e-05
1.35371e-05
1.30688e-05
1.26153e-05
1.21762e-05
1.17511e-05
1.13395e-05
1.09412e-05
1.05557e-05
1.01826e-05
9.82171e-06
9.47258e-06
9.13491e-06
8.80835e-06
8.49261e-06
8.18739e-06
7.89238e-06
7.6073e-06
7.33188e-06
7.06586e-06
6.80898e-06
6.561e-06
6.3217e-06
6.09085e-06
5.86824e-06
5.65369e-06
5.44701e-06
5.24804e-06
5.05663e-06
4.87266e-06
4.69601e-06
4.52659e-06
4.36434e-06
4.20921e-06
4.06119e-06
3.92029e-06
3.78658e-06
3.66014e-06
3.54111e-06
3.42965e-06
3.32602e-06
3.23049e-06
3.14342e-06
3.06522e-06
2.99637e-06
2.93741e-06
2.88897e-06
2.85168e-06
2.82623e-06
2.81324e-06
)
;
    }
    Wall
    {
        type            calculated;
        value           nonuniform List<scalar> 
400
(
2.66204e-07
8.47758e-07
1.48721e-06
2.18157e-06
2.93096e-06
3.73763e-06
4.60368e-06
5.5313e-06
6.52297e-06
7.58132e-06
8.70917e-06
9.90938e-06
1.11849e-05
1.25388e-05
1.39739e-05
1.54934e-05
1.71e-05
1.87968e-05
2.05866e-05
2.24723e-05
2.44566e-05
2.65423e-05
2.8732e-05
3.10283e-05
3.34338e-05
3.5951e-05
3.85822e-05
4.13299e-05
4.41963e-05
4.71837e-05
5.02941e-05
5.35297e-05
5.68923e-05
6.03841e-05
6.40066e-05
6.77616e-05
7.16508e-05
7.56756e-05
7.98375e-05
8.41378e-05
8.85776e-05
9.3158e-05
9.788e-05
0.000102744
0.000107752
0.000112903
0.000118199
0.000123638
0.000129223
0.000134952
0.000140825
0.000146843
0.000153004
0.000159309
0.000165756
0.000172345
0.000179075
0.000185944
0.00019295
0.000200094
0.000207372
0.000214783
0.000222326
0.000229997
0.000237794
0.000245715
0.000253758
0.000261919
0.000270195
0.000278583
0.000287081
0.000295683
0.000304388
0.00031319
0.000322086
0.000331072
0.000340143
0.000349295
0.000358524
0.000367825
0.000377192
0.000386622
0.000396108
0.000405646
0.00041523
0.000424854
0.000434514
0.000444203
0.000453915
0.000463645
0.000473387
0.000483135
0.000492881
0.000502621
0.000512348
0.000522056
0.000531737
0.000541387
0.000550997
0.000560562
0.000570076
0.000579531
0.000588922
0.00059824
0.000607482
0.000616638
0.000625704
0.000634672
0.000643537
0.000652291
0.000660929
0.000669444
0.00067783
0.000686082
0.000694192
0.000702156
0.000709967
0.00071762
0.000725108
0.000732428
0.000739573
0.000746539
0.000753319
0.00075991
0.000766307
0.000772505
0.0007785
0.000784287
0.000789863
0.000795224
0.000800365
0.000805285
0.000809979
0.000814445
0.000818679
0.000822679
0.000826443
0.000829968
0.000833253
0.000836296
0.000839094
0.000841647
0.000843954
0.000846014
0.000847826
0.00084939
0.000850705
0.000851772
0.00085259
0.000853161
0.000853484
0.000853561
0.000853394
0.000852983
0.000852328
0.000851431
0.000850295
0.000848922
0.000847314
0.000845474
0.000843404
0.000841107
0.000838587
0.000835845
0.000832887
0.000829714
0.000826331
0.000822741
0.000818948
0.000814957
0.000810771
0.000806394
0.000801832
0.000797088
0.000792167
0.000787073
0.000781812
0.000776388
0.000770806
0.000765071
0.000759188
0.000753162
0.000746998
0.000740701
0.000734276
0.00072773
0.000721066
0.00071429
0.000707407
0.000700423
0.000693342
0.000686171
0.000678914
0.000671575
0.000664162
0.000656678
0.000649129
0.000641519
0.000633854
0.000626139
0.000618378
0.000610577
0.000602739
0.000594871
0.000586976
0.000579059
0.000571125
0.000563177
0.000555221
0.00054726
0.000539299
0.000531341
0.000523391
0.000515452
0.000507528
0.000499624
0.000491741
0.000483885
0.000476058
0.000468263
0.000460504
0.000452784
0.000445105
0.000437471
0.000429884
0.000422347
0.000414862
0.000407432
0.00040006
0.000392747
0.000385495
0.000378306
0.000371184
0.000364128
0.000357141
0.000350225
0.000343381
0.000336611
0.000329915
0.000323296
0.000316754
0.00031029
0.000303906
0.000297601
0.000291378
0.000285237
0.000279178
0.000273201
0.000267309
0.0002615
0.000255776
0.000250136
0.000244581
0.00023911
0.000233725
0.000228425
0.00022321
0.000218079
0.000213034
0.000208073
0.000203196
0.000198403
0.000193694
0.000189068
0.000184525
0.000180065
0.000175686
0.000171388
0.000167172
0.000163035
0.000158978
0.000154999
0.000151098
0.000147275
0.000143528
0.000139857
0.000136261
0.000132739
0.000129291
0.000125914
0.000122609
0.000119375
0.00011621
0.000113114
0.000110086
0.000107125
0.00010423
0.000101399
9.86331e-05
9.59297e-05
9.32884e-05
9.07082e-05
8.81881e-05
8.5727e-05
8.33241e-05
8.09783e-05
7.86887e-05
7.64542e-05
7.42739e-05
7.21469e-05
7.00721e-05
6.80487e-05
6.60755e-05
6.41517e-05
6.22764e-05
6.04486e-05
5.86673e-05
5.69316e-05
5.52407e-05
5.35936e-05
5.19894e-05
5.04273e-05
4.89062e-05
4.74255e-05
4.59842e-05
4.45814e-05
4.32164e-05
4.18882e-05
4.05962e-05
3.93394e-05
3.81171e-05
3.69285e-05
3.57728e-05
3.46493e-05
3.35572e-05
3.24958e-05
3.14643e-05
3.04621e-05
2.94884e-05
2.85426e-05
2.7624e-05
2.67319e-05
2.58656e-05
2.50246e-05
2.42082e-05
2.34157e-05
2.26466e-05
2.19003e-05
2.11762e-05
2.04737e-05
1.97922e-05
1.91313e-05
1.84903e-05
1.78688e-05
1.72663e-05
1.66821e-05
1.6116e-05
1.55672e-05
1.50355e-05
1.45203e-05
1.40211e-05
1.35376e-05
1.30693e-05
1.26158e-05
1.21767e-05
1.17516e-05
1.134e-05
1.09416e-05
1.05561e-05
1.01831e-05
9.82214e-06
9.473e-06
9.13531e-06
8.80874e-06
8.493e-06
8.18776e-06
7.89274e-06
7.60765e-06
7.33222e-06
7.06619e-06
6.80931e-06
6.56132e-06
6.32201e-06
6.09114e-06
5.86853e-06
5.65397e-06
5.44728e-06
5.2483e-06
5.05689e-06
4.87291e-06
4.69625e-06
4.52683e-06
4.36457e-06
4.20943e-06
4.0614e-06
3.92051e-06
3.78679e-06
3.66034e-06
3.5413e-06
3.42985e-06
3.32621e-06
3.23068e-06
3.1436e-06
3.0654e-06
2.99655e-06
2.93759e-06
2.88915e-06
2.85185e-06
2.82637e-06
2.81337e-06
)
;
    }
}


// ************************************************************************* //
