/*--------------------------------*- C++ -*----------------------------------*\
  =========                 |
  \\      /  F ield         | OpenFOAM: The Open Source CFD Toolbox
   \\    /   O peration     | Website:  https://openfoam.org
    \\  /    A nd           | Version:  dev
     \\/     M anipulation  |
\*---------------------------------------------------------------------------*/
FoamFile
{
    format      ascii;
    class       volScalarField;
    location    "0.26";
    object      growth;
}
// * * * * * * * * * * * * * * * * * * * * * * * * * * * * * * * * * * * * * //

dimensions      [0 0 0 0 0 0 0];

internalField   uniform 0;

boundaryField
{
    frontAndBack
    {
        type            empty;
    }
    inlet
    {
        type            calculated;
        value           uniform 0;
    }
    outlet
    {
        type            calculated;
        value           uniform 0;
    }
    substrate
    {
        type            calculated;
        value           nonuniform List<scalar> 
400
(
0.723392
0.709435
0.699196
0.689837
0.680943
0.672478
0.664344
0.656449
0.648733
0.64115
0.633666
0.626255
0.618896
0.611576
0.604281
0.597003
0.589737
0.582478
0.575223
0.56797
0.56072
0.553472
0.546227
0.538986
0.531752
0.524525
0.517309
0.510105
0.502916
0.495744
0.488591
0.481461
0.474356
0.467277
0.460228
0.453212
0.446229
0.439284
0.432377
0.425511
0.418689
0.411912
0.405183
0.398502
0.391873
0.385296
0.378774
0.372308
0.3659
0.359551
0.353262
0.347036
0.340872
0.334772
0.328737
0.322769
0.316867
0.311034
0.305269
0.299574
0.293949
0.288394
0.28291
0.277498
0.272157
0.266889
0.261693
0.256569
0.251519
0.246541
0.241635
0.236803
0.232043
0.227355
0.22274
0.218197
0.213725
0.209326
0.204997
0.200739
0.196551
0.192434
0.188386
0.184406
0.180495
0.176652
0.172876
0.169167
0.165524
0.161946
0.158433
0.154984
0.151598
0.148275
0.145014
0.141814
0.138674
0.135594
0.132572
0.129609
0.126703
0.123854
0.12106
0.118322
0.115637
0.113006
0.110428
0.107901
0.105425
0.103
0.100623
0.0982957
0.0960159
0.0937832
0.0915967
0.0894557
0.0873594
0.0853071
0.083298
0.0813313
0.0794062
0.0775222
0.0756784
0.0738741
0.0721085
0.0703811
0.068691
0.0670376
0.0654202
0.0638381
0.0622907
0.0607773
0.0592972
0.0578499
0.0564346
0.0550508
0.0536978
0.052375
0.0510819
0.0498178
0.0485822
0.0473745
0.0461942
0.0450406
0.0439133
0.0428118
0.0417354
0.0406837
0.0396561
0.0386523
0.0376716
0.0367136
0.0357779
0.0348639
0.0339713
0.0330995
0.0322481
0.0314167
0.0306049
0.0298123
0.0290384
0.0282828
0.0275453
0.0268252
0.0261224
0.0254364
0.0247668
0.0241134
0.0234757
0.0228534
0.0222462
0.0216537
0.0210757
0.0205117
0.0199615
0.0194248
0.0189013
0.0183907
0.0178927
0.0174071
0.0169334
0.0164716
0.0160213
0.0155822
0.0151541
0.0147368
0.01433
0.0139335
0.013547
0.0131703
0.0128032
0.0124454
0.0120968
0.0117572
0.0114262
0.0111038
0.0107897
0.0104838
0.0101858
0.00989552
0.00961285
0.00933758
0.00906953
0.00880854
0.00855443
0.00830704
0.00806621
0.00783179
0.00760361
0.00738154
0.00716542
0.00695511
0.00675046
0.00655135
0.00635763
0.00616918
0.00598586
0.00580754
0.00563412
0.00546545
0.00530143
0.00514194
0.00498687
0.0048361
0.00468953
0.00454706
0.00440857
0.00427397
0.00414316
0.00401604
0.00389252
0.00377251
0.00365591
0.00354264
0.00343261
0.00332573
0.00322194
0.00312113
0.00302325
0.0029282
0.00283592
0.00274632
0.00265935
0.00257493
0.002493
0.00241347
0.0023363
0.00226142
0.00218876
0.00211827
0.00204989
0.00198355
0.00191921
0.0018568
0.00179628
0.0017376
0.00168069
0.00162552
0.00157204
0.00152019
0.00146993
0.00142122
0.00137401
0.00132826
0.00128393
0.00124098
0.00119937
0.00115906
0.00112002
0.0010822
0.00104557
0.0010101
0.000975753
0.000942497
0.000910299
0.000879129
0.000848957
0.000819752
0.000791487
0.000764133
0.000737664
0.000712052
0.000687273
0.0006633
0.000640111
0.000617681
0.000595987
0.000575007
0.000554719
0.000535102
0.000516135
0.000497799
0.000480073
0.00046294
0.00044638
0.000430377
0.000414911
0.000399968
0.00038553
0.000371581
0.000358106
0.000345091
0.00033252
0.000320379
0.000308655
0.000297335
0.000286404
0.000275852
0.000265665
0.000255833
0.000246342
0.000237183
0.000228345
0.000219816
0.000211588
0.000203649
0.000195991
0.000188604
0.00018148
0.000174609
0.000167983
0.000161595
0.000155435
0.000149496
0.000143772
0.000138254
0.000132936
0.000127811
0.000122872
0.000118113
0.000113529
0.000109112
0.000104857
0.000100759
9.68124e-05
9.30115e-05
8.93516e-05
8.58277e-05
8.24351e-05
7.91691e-05
7.60254e-05
7.29997e-05
7.00877e-05
6.72856e-05
6.45893e-05
6.19952e-05
5.94997e-05
5.70991e-05
5.47901e-05
5.25695e-05
5.0434e-05
4.83807e-05
4.64065e-05
4.45085e-05
4.26841e-05
4.09305e-05
3.92452e-05
3.76257e-05
3.60695e-05
3.45745e-05
3.31383e-05
3.17588e-05
3.04338e-05
2.91616e-05
2.79399e-05
2.67672e-05
2.56415e-05
2.45611e-05
2.35244e-05
2.25299e-05
2.15759e-05
2.06612e-05
1.97842e-05
1.89437e-05
1.81384e-05
1.73672e-05
1.6629e-05
1.59227e-05
1.52474e-05
1.46021e-05
1.39862e-05
1.33988e-05
1.28393e-05
1.23073e-05
1.18023e-05
1.1324e-05
1.08722e-05
1.04469e-05
1.00483e-05
9.6765e-06
9.33208e-06
9.01567e-06
8.72817e-06
8.47065e-06
8.24448e-06
8.05122e-06
7.89267e-06
7.7708e-06
7.68768e-06
7.64531e-06
)
;
    }
    Wall
    {
        type            calculated;
        value           nonuniform List<scalar> 
400
(
0.723392
0.709435
0.699197
0.689838
0.680944
0.672478
0.664342
0.656448
0.648731
0.641148
0.633663
0.626252
0.618894
0.611573
0.604278
0.597001
0.589735
0.582476
0.575221
0.567968
0.560718
0.55347
0.546226
0.538985
0.531751
0.524525
0.517308
0.510105
0.502915
0.495744
0.488591
0.481461
0.474356
0.467278
0.460229
0.453213
0.44623
0.439285
0.432378
0.425513
0.41869
0.411914
0.405184
0.398504
0.391874
0.385298
0.378776
0.37231
0.365902
0.359553
0.353264
0.347037
0.340873
0.334774
0.328739
0.322771
0.316869
0.311036
0.305271
0.299576
0.29395
0.288396
0.282912
0.2775
0.272159
0.266891
0.261695
0.256572
0.251521
0.246543
0.241637
0.236805
0.232045
0.227357
0.222742
0.218199
0.213727
0.209328
0.204999
0.200741
0.196553
0.192436
0.188387
0.184408
0.180497
0.176654
0.172878
0.169169
0.165526
0.161948
0.158435
0.154986
0.1516
0.148277
0.145015
0.141815
0.138675
0.135595
0.132574
0.129611
0.126705
0.123855
0.121062
0.118323
0.115639
0.113007
0.110429
0.107902
0.105426
0.103001
0.100625
0.0982969
0.0960171
0.0937843
0.0915978
0.0894568
0.0873605
0.0853081
0.083299
0.0813323
0.0794072
0.0775232
0.0756793
0.073875
0.0721094
0.070382
0.0686919
0.0670385
0.0654211
0.063839
0.0622915
0.0607781
0.059298
0.0578507
0.0564354
0.0550515
0.0536985
0.0523757
0.0510826
0.0498185
0.0485829
0.0473752
0.0461949
0.0450413
0.043914
0.0428124
0.041736
0.0406843
0.0396567
0.0386529
0.0376722
0.0367142
0.0357784
0.0348644
0.0339718
0.0331
0.0322486
0.0314172
0.0306054
0.0298128
0.0290389
0.0282833
0.0275457
0.0268257
0.0261228
0.0254368
0.0247673
0.0241138
0.0234761
0.0228538
0.0222466
0.0216541
0.021076
0.0205121
0.0199619
0.0194252
0.0189017
0.0183911
0.0178931
0.0174074
0.0169338
0.0164719
0.0160216
0.0155825
0.0151544
0.0147371
0.0143303
0.0139337
0.0135472
0.0131705
0.0128034
0.0124457
0.0120971
0.0117574
0.0114264
0.011104
0.0107899
0.010484
0.010186
0.00989573
0.00961305
0.00933778
0.00906973
0.00880873
0.00855461
0.00830722
0.00806639
0.00783196
0.00760378
0.00738171
0.00716558
0.00695527
0.00675062
0.0065515
0.00635778
0.00616932
0.005986
0.00580769
0.00563425
0.00546559
0.00530156
0.00514207
0.004987
0.00483623
0.00468966
0.00454718
0.00440869
0.00427408
0.00414327
0.00401615
0.00389263
0.00377261
0.00365601
0.00354273
0.0034327
0.00332583
0.00322203
0.00312122
0.00302333
0.00292828
0.002836
0.00274641
0.00265943
0.00257501
0.00249307
0.00241355
0.00233637
0.00226149
0.00218883
0.00211834
0.00204995
0.00198361
0.00191927
0.00185686
0.00179634
0.00173765
0.00168075
0.00162558
0.00157209
0.00152024
0.00146998
0.00142127
0.00137406
0.00132831
0.00128398
0.00124103
0.00119942
0.00115911
0.00112006
0.00108224
0.00104561
0.00101014
0.00097579
0.000942532
0.000910334
0.000879163
0.000848989
0.000819784
0.000791518
0.000764163
0.000737693
0.00071208
0.0006873
0.000663327
0.000640137
0.000617706
0.000596011
0.000575031
0.000554742
0.000535124
0.000516157
0.00049782
0.000480094
0.00046296
0.0004464
0.000430396
0.00041493
0.000399986
0.000385547
0.000371598
0.000358123
0.000345107
0.000332535
0.000320394
0.00030867
0.000297349
0.000286418
0.000275865
0.000265678
0.000255845
0.000246354
0.000237195
0.000228356
0.000219827
0.000211598
0.00020366
0.000196001
0.000188614
0.000181489
0.000174618
0.000167992
0.000161603
0.000155443
0.000149504
0.00014378
0.000138262
0.000132943
0.000127818
0.000122879
0.00011812
0.000113535
0.000109118
0.000104863
0.000100765
9.6818e-05
9.3017e-05
8.93569e-05
8.58328e-05
8.244e-05
7.91739e-05
7.603e-05
7.30041e-05
7.0092e-05
6.72897e-05
6.45934e-05
6.19991e-05
5.95034e-05
5.71027e-05
5.47936e-05
5.25729e-05
5.04373e-05
4.83838e-05
4.64095e-05
4.45114e-05
4.26869e-05
4.09332e-05
3.92478e-05
3.76282e-05
3.6072e-05
3.45768e-05
3.31405e-05
3.17609e-05
3.0436e-05
2.91636e-05
2.79419e-05
2.67691e-05
2.56433e-05
2.45629e-05
2.35261e-05
2.25315e-05
2.15775e-05
2.06627e-05
1.97856e-05
1.89451e-05
1.81398e-05
1.73685e-05
1.66303e-05
1.59239e-05
1.52485e-05
1.46032e-05
1.39872e-05
1.33998e-05
1.28403e-05
1.23083e-05
1.18032e-05
1.13249e-05
1.08731e-05
1.04478e-05
1.00491e-05
9.67728e-06
9.33284e-06
9.01642e-06
8.72889e-06
8.47137e-06
8.24518e-06
8.05192e-06
7.89336e-06
7.77145e-06
7.68824e-06
7.64579e-06
)
;
    }
}


// ************************************************************************* //
