/*--------------------------------*- C++ -*----------------------------------*\
  =========                 |
  \\      /  F ield         | OpenFOAM: The Open Source CFD Toolbox
   \\    /   O peration     | Website:  https://openfoam.org
    \\  /    A nd           | Version:  dev
     \\/     M anipulation  |
\*---------------------------------------------------------------------------*/
FoamFile
{
    format      ascii;
    class       volScalarField;
    location    "0.26";
    object      N1;
}
// * * * * * * * * * * * * * * * * * * * * * * * * * * * * * * * * * * * * * //

dimensions      [0 0 0 0 0 0 0];

internalField   nonuniform List<scalar> 
8000
(
2.02122e-06
6.43838e-06
1.12967e-05
1.65738e-05
2.22707e-05
2.84045e-05
3.49913e-05
4.2048e-05
4.95935e-05
5.76481e-05
6.62333e-05
7.53712e-05
8.50844e-05
9.5396e-05
0.000106329
0.000117906
0.00013015
0.000143083
0.000156728
0.000171107
0.00018624
0.000202149
0.000218854
0.000236376
0.000254734
0.000273948
0.000294036
0.000315017
0.000336908
0.000359727
0.00038349
0.000408213
0.000433911
0.0004606
0.000488293
0.000517005
0.000546746
0.00057753
0.000609367
0.000642268
0.000676241
0.000711296
0.00074744
0.00078468
0.00082302
0.000862467
0.000903023
0.000944691
0.000987472
0.00103137
0.00107638
0.0011225
0.00116972
0.00121806
0.00126749
0.00131801
0.00136962
0.0014223
0.00147605
0.00153085
0.00158669
0.00164356
0.00170144
0.00176031
0.00182016
0.00188097
0.00194272
0.00200538
0.00206893
0.00213335
0.00219861
0.00226469
0.00233155
0.00239918
0.00246753
0.00253657
0.00260628
0.00267662
0.00274755
0.00281904
0.00289104
0.00296353
0.00303646
0.0031098
0.00318349
0.0032575
0.00333179
0.00340631
0.00348101
0.00355585
0.00363079
0.00370578
0.00378077
0.00385571
0.00393055
0.00400525
0.00407975
0.00415401
0.00422798
0.0043016
0.00437483
0.00444762
0.00451991
0.00459165
0.0046628
0.0047333
0.00480311
0.00487217
0.00494043
0.00500785
0.00507438
0.00513997
0.00520457
0.00526813
0.00533061
0.00539196
0.00545215
0.00551112
0.00556883
0.00562523
0.0056803
0.00573399
0.00578626
0.00583707
0.00588638
0.00593417
0.0059804
0.00602503
0.00606804
0.00610939
0.00614906
0.00618702
0.00622325
0.00625772
0.00629041
0.0063213
0.00635037
0.0063776
0.00640299
0.00642651
0.00644815
0.00646791
0.00648577
0.00650173
0.00651578
0.00652792
0.00653815
0.00654647
0.00655287
0.00655737
0.00655997
0.00656067
0.0065595
0.00655644
0.00655151
0.00654472
0.00653608
0.00652562
0.00651335
0.00649929
0.00648347
0.00646589
0.0064466
0.0064256
0.00640293
0.00637862
0.00635268
0.00632515
0.00629606
0.00626545
0.00623333
0.00619974
0.00616473
0.00612831
0.00609053
0.00605143
0.00601103
0.00596938
0.00592651
0.00588246
0.00583727
0.00579098
0.00574363
0.00569526
0.0056459
0.0055956
0.0055444
0.00549233
0.00543945
0.00538578
0.00533136
0.00527625
0.00522047
0.00516408
0.0051071
0.00504958
0.00499155
0.00493306
0.00487414
0.00481484
0.00475518
0.00469521
0.00463496
0.00457448
0.00451378
0.00445292
0.00439192
0.00433082
0.00426965
0.00420845
0.00414724
0.00408606
0.00402493
0.00396389
0.00390297
0.00384219
0.00378159
0.00372118
0.003661
0.00360106
0.0035414
0.00348204
0.00342299
0.00336429
0.00330595
0.003248
0.00319044
0.00313331
0.00307662
0.00302038
0.00296462
0.00290934
0.00285457
0.00280031
0.00274659
0.0026934
0.00264077
0.00258871
0.00253722
0.00248632
0.00243601
0.0023863
0.0023372
0.00228872
0.00224086
0.00219363
0.00214704
0.00210108
0.00205576
0.00201109
0.00196707
0.0019237
0.00188097
0.00183891
0.00179749
0.00175673
0.00171662
0.00167717
0.00163836
0.00160021
0.00156271
0.00152585
0.00148963
0.00145406
0.00141912
0.00138482
0.00135114
0.00131809
0.00128566
0.00125385
0.00122264
0.00119205
0.00116205
0.00113264
0.00110383
0.0010756
0.00104794
0.00102086
0.000994332
0.000968365
0.000942948
0.000918074
0.000893736
0.000869926
0.000846638
0.000823864
0.000801598
0.00077983
0.000758555
0.000737764
0.000717451
0.000697607
0.000678226
0.000659298
0.000640818
0.000622777
0.000605168
0.000587984
0.000571216
0.000554858
0.000538901
0.000523339
0.000508164
0.000493369
0.000478946
0.000464889
0.00045119
0.000437841
0.000424837
0.00041217
0.000399832
0.000387818
0.00037612
0.000364732
0.000353647
0.000342859
0.000332361
0.000322147
0.00031221
0.000302544
0.000293144
0.000284003
0.000275115
0.000266474
0.000258075
0.000249912
0.00024198
0.000234272
0.000226784
0.00021951
0.000212445
0.000205584
0.000198922
0.000192454
0.000186175
0.00018008
0.000174166
0.000168426
0.000162857
0.000157454
0.000152213
0.00014713
0.000142201
0.000137421
0.000132787
0.000128295
0.000123941
0.00011972
0.000115631
0.000111669
0.00010783
0.000104112
0.00010051
9.70225e-05
9.36453e-05
9.03756e-05
8.72104e-05
8.41468e-05
8.11819e-05
7.8313e-05
7.55373e-05
7.28522e-05
7.02551e-05
6.77437e-05
6.53154e-05
6.29679e-05
6.0699e-05
5.85066e-05
5.63884e-05
5.43424e-05
5.23668e-05
5.04597e-05
4.86192e-05
4.68438e-05
4.51317e-05
4.34816e-05
4.18921e-05
4.03619e-05
3.88898e-05
3.74749e-05
3.61163e-05
3.48133e-05
3.35654e-05
3.23724e-05
3.1234e-05
3.01504e-05
2.9122e-05
2.81496e-05
2.72341e-05
2.63769e-05
2.55799e-05
2.48452e-05
2.41756e-05
2.35741e-05
2.30446e-05
2.25912e-05
2.22186e-05
2.19318e-05
2.17361e-05
2.16362e-05
1.98008e-06
6.34688e-06
1.11646e-05
1.64241e-05
2.21224e-05
2.82701e-05
3.48809e-05
4.19709e-05
4.95585e-05
5.76642e-05
6.63097e-05
7.55176e-05
8.53111e-05
9.57137e-05
0.000106749
0.000118441
0.000130812
0.000143886
0.000157686
0.000172235
0.000187554
0.000203666
0.000220591
0.000238352
0.000256967
0.000276459
0.000296845
0.000318146
0.000340379
0.000363564
0.000387717
0.000412855
0.000438995
0.000466152
0.000494342
0.000523578
0.000553874
0.000585243
0.000617696
0.000651245
0.0006859
0.000721669
0.000758562
0.000796585
0.000835744
0.000876046
0.000917495
0.000960092
0.00100384
0.00104874
0.0010948
0.001142
0.00119035
0.00123985
0.00129049
0.00134226
0.00139515
0.00144916
0.00150428
0.00156049
0.00161778
0.00167614
0.00173556
0.00179601
0.00185747
0.00191994
0.00198338
0.00204777
0.0021131
0.00217934
0.00224645
0.00231442
0.00238321
0.00245279
0.00252314
0.00259422
0.002666
0.00273844
0.0028115
0.00288515
0.00295935
0.00303406
0.00310924
0.00318485
0.00326084
0.00333718
0.00341381
0.00349069
0.00356778
0.00364503
0.00372239
0.00379982
0.00387725
0.00395465
0.00403197
0.00410914
0.00418613
0.00426288
0.00433934
0.00441546
0.00449118
0.00456646
0.00464123
0.00471546
0.00478908
0.00486204
0.0049343
0.0050058
0.00507649
0.00514631
0.00521523
0.00528318
0.00535012
0.005416
0.00548078
0.00554439
0.00560681
0.00566798
0.00572786
0.00578641
0.00584357
0.00589932
0.00595361
0.0060064
0.00605765
0.00610733
0.00615541
0.00620184
0.0062466
0.00628965
0.00633097
0.00637053
0.0064083
0.00644426
0.00647839
0.00651066
0.00654105
0.00656955
0.00659614
0.0066208
0.00664353
0.00666431
0.00668314
0.0067
0.00671489
0.00672781
0.00673875
0.00674771
0.0067547
0.00675972
0.00676277
0.00676387
0.00676302
0.00676024
0.00675551
0.00674885
0.00674029
0.00672984
0.00671752
0.00670335
0.00668735
0.00666954
0.00664995
0.0066286
0.00660551
0.00658072
0.00655425
0.00652614
0.0064964
0.00646508
0.00643221
0.00639782
0.00636194
0.00632462
0.00628588
0.00624576
0.00620431
0.00616155
0.00611753
0.00607229
0.00602586
0.00597829
0.00592962
0.00587989
0.00582913
0.0057774
0.00572473
0.00567116
0.00561673
0.00556149
0.00550548
0.00544874
0.00539131
0.00533324
0.00527455
0.0052153
0.00515552
0.00509526
0.00503455
0.00497344
0.00491196
0.00485015
0.00478804
0.00472569
0.00466312
0.00460036
0.00453746
0.00447446
0.00441137
0.00434825
0.00428511
0.004222
0.00415894
0.00409597
0.00403312
0.00397041
0.00390787
0.00384554
0.00378343
0.00372158
0.00366
0.00359873
0.00353778
0.00347719
0.00341697
0.00335714
0.00329772
0.00323873
0.0031802
0.00312213
0.00306455
0.00300747
0.00295091
0.00289488
0.00283939
0.00278446
0.00273011
0.00267633
0.00262315
0.00257057
0.0025186
0.00246725
0.00241653
0.00236644
0.002317
0.00226821
0.00222006
0.00217258
0.00212576
0.0020796
0.00203411
0.00198929
0.00194514
0.00190167
0.00185887
0.00181675
0.0017753
0.00173452
0.00169442
0.00165498
0.00161622
0.00157812
0.00154069
0.00150392
0.0014678
0.00143234
0.00139753
0.00136336
0.00132984
0.00129695
0.00126469
0.00123306
0.00120204
0.00117164
0.00114185
0.00111266
0.00108407
0.00105606
0.00102864
0.00100179
0.000975504
0.000949783
0.000924616
0.000899995
0.000875913
0.000852362
0.000829335
0.000806824
0.000784822
0.000763321
0.000742312
0.000721789
0.000701744
0.000682168
0.000663055
0.000644395
0.000626182
0.000608408
0.000591064
0.000574144
0.000557639
0.000541542
0.000525845
0.000510541
0.000495622
0.00048108
0.000466909
0.0004531
0.000439647
0.000426543
0.00041378
0.000401351
0.000389249
0.000377468
0.000365999
0.000354838
0.000343977
0.000333409
0.000323128
0.000313128
0.000303402
0.000293944
0.000284747
0.000275807
0.000267117
0.00025867
0.000250462
0.000242487
0.000234739
0.000227212
0.000219901
0.000212802
0.000205908
0.000199215
0.000192717
0.00018641
0.000180289
0.000174349
0.000168586
0.000162995
0.000157572
0.000152311
0.00014721
0.000142263
0.000137467
0.000132818
0.000128311
0.000123943
0.000119711
0.00011561
0.000111637
0.000107788
0.000104061
0.000100451
9.69552e-05
9.35709e-05
9.02947e-05
8.71236e-05
8.40546e-05
8.10849e-05
7.82117e-05
7.54322e-05
7.27439e-05
7.01441e-05
6.76303e-05
6.52002e-05
6.28515e-05
6.05817e-05
5.83888e-05
5.62707e-05
5.42253e-05
5.22508e-05
5.03452e-05
4.85069e-05
4.67342e-05
4.50256e-05
4.33796e-05
4.17948e-05
4.02703e-05
3.88048e-05
3.73975e-05
3.60477e-05
3.47548e-05
3.35185e-05
3.23386e-05
3.12153e-05
3.01489e-05
2.91403e-05
2.81903e-05
2.73004e-05
2.64725e-05
2.57088e-05
2.50121e-05
2.43856e-05
2.38333e-05
2.33596e-05
2.29694e-05
2.26681e-05
2.24615e-05
2.23555e-05
1.94309e-06
6.23309e-06
1.09618e-05
1.61411e-05
2.1776e-05
2.78747e-05
3.44489e-05
4.15133e-05
4.90855e-05
5.7185e-05
6.58335e-05
7.50535e-05
8.48684e-05
9.53018e-05
0.000106378
0.00011812
0.000130553
0.0001437
0.000157585
0.000172231
0.00018766
0.000203895
0.000220958
0.000238871
0.000257655
0.000277331
0.00029792
0.000319441
0.000341914
0.000365357
0.000389789
0.000415228
0.000441691
0.000469194
0.000497753
0.000527384
0.000558099
0.000589914
0.00062284
0.000656889
0.000692073
0.0007284
0.000765881
0.000804523
0.000844334
0.000885318
0.000927482
0.000970828
0.00101536
0.00106108
0.00110798
0.00115608
0.00120535
0.00125581
0.00130744
0.00136024
0.0014142
0.00146932
0.00152558
0.00158298
0.00164149
0.00170111
0.00176182
0.00182361
0.00188644
0.00195032
0.00201521
0.00208109
0.00214794
0.00221573
0.00228444
0.00235404
0.00242449
0.00249578
0.00256786
0.00264071
0.00271429
0.00278856
0.00286349
0.00293903
0.00301516
0.00309182
0.00316898
0.0032466
0.00332463
0.00340302
0.00348173
0.00356072
0.00363993
0.00371933
0.00379885
0.00387845
0.00395808
0.00403769
0.00411722
0.00419663
0.00427586
0.00435486
0.00443358
0.00451196
0.00458994
0.00466748
0.00474452
0.00482101
0.0048969
0.00497212
0.00504662
0.00512036
0.00519328
0.00526533
0.00533645
0.0054066
0.00547571
0.00554375
0.00561066
0.00567639
0.0057409
0.00580414
0.00586606
0.00592662
0.00598577
0.00604346
0.00609967
0.00615434
0.00620745
0.00625894
0.00630879
0.00635695
0.0064034
0.00644811
0.00649104
0.00653216
0.00657145
0.00660887
0.00664442
0.00667806
0.00670978
0.00673955
0.00676736
0.00679319
0.00681703
0.00683887
0.00685871
0.00687652
0.0068923
0.00690606
0.00691778
0.00692747
0.00693513
0.00694076
0.00694436
0.00694595
0.00694554
0.00694315
0.00693874
0.00693235
0.00692399
0.00691368
0.00690145
0.00688731
0.00687129
0.0068534
0.00683367
0.00681213
0.00678879
0.0067637
0.00673688
0.00670835
0.00667816
0.00664633
0.00661289
0.00657788
0.00654134
0.0065033
0.00646381
0.00642288
0.00638057
0.00633692
0.00629196
0.00624574
0.00619829
0.00614965
0.00609988
0.006049
0.00599707
0.00594412
0.00589019
0.00583534
0.0057796
0.00572301
0.00566562
0.00560748
0.00554861
0.00548908
0.0054289
0.00536814
0.00530684
0.00524502
0.00518274
0.00512003
0.00505694
0.0049935
0.00492975
0.00486574
0.0048015
0.00473706
0.00467247
0.00460776
0.00454296
0.00447812
0.00441326
0.00434841
0.00428362
0.00421891
0.00415432
0.00408986
0.00402558
0.0039615
0.00389765
0.00383406
0.00377075
0.00370774
0.00364507
0.00358275
0.00352081
0.00345927
0.00339815
0.00333748
0.00327726
0.00321752
0.00315827
0.00309954
0.00304133
0.00298367
0.00292657
0.00287004
0.00281409
0.00275874
0.00270399
0.00264987
0.00259637
0.0025435
0.00249128
0.00243971
0.0023888
0.00233856
0.00228898
0.00224008
0.00219186
0.00214432
0.00209747
0.00205131
0.00200583
0.00196105
0.00191696
0.00187357
0.00183087
0.00178886
0.00174754
0.00170691
0.00166697
0.00162771
0.00158914
0.00155124
0.00151403
0.00147748
0.00144161
0.00140639
0.00137184
0.00133794
0.00130469
0.00127209
0.00124012
0.00120878
0.00117807
0.00114798
0.0011185
0.00108962
0.00106135
0.00103367
0.00100657
0.000980048
0.000954098
0.00092871
0.000903877
0.000879592
0.000855846
0.000832632
0.000809941
0.000787767
0.0007661
0.000744934
0.000724259
0.000704069
0.000684354
0.000665108
0.000646321
0.000627987
0.000610096
0.000592642
0.000575615
0.000559009
0.000542816
0.000527027
0.000511635
0.000496632
0.000482011
0.000467765
0.000453884
0.000440363
0.000427194
0.000414369
0.000401882
0.000389725
0.000377891
0.000366373
0.000355164
0.000344259
0.000333649
0.000323328
0.000313291
0.00030353
0.000294038
0.000284811
0.000275842
0.000267124
0.000258652
0.00025042
0.000242422
0.000234653
0.000227107
0.000219778
0.000212662
0.000205752
0.000199045
0.000192534
0.000186215
0.000180083
0.000174133
0.000168361
0.000162761
0.00015733
0.000152063
0.000146956
0.000142004
0.000137203
0.00013255
0.00012804
0.00012367
0.000119435
0.000115333
0.000111358
0.000107509
0.000103781
0.000100171
9.66762e-05
9.32928e-05
9.00178e-05
8.68483e-05
8.37812e-05
8.08137e-05
7.79429e-05
7.51662e-05
7.24809e-05
6.98845e-05
6.73743e-05
6.49481e-05
6.26034e-05
6.03381e-05
5.81499e-05
5.60369e-05
5.39969e-05
5.2028e-05
5.01286e-05
4.82968e-05
4.65311e-05
4.483e-05
4.31921e-05
4.16161e-05
4.01011e-05
3.8646e-05
3.72501e-05
3.59128e-05
3.46336e-05
3.34125e-05
3.22496e-05
3.11452e-05
3.00999e-05
2.91149e-05
2.81915e-05
2.73316e-05
2.65375e-05
2.58121e-05
2.51587e-05
2.45814e-05
2.40849e-05
2.36745e-05
2.33562e-05
2.31367e-05
2.30232e-05
1.90645e-06
6.11427e-06
1.07453e-05
1.58216e-05
2.13579e-05
2.73664e-05
3.38601e-05
4.0854e-05
4.83654e-05
5.64138e-05
6.50204e-05
7.42076e-05
8.39984e-05
9.44168e-05
0.000105487
0.000117232
0.000129677
0.000142846
0.000156762
0.000171449
0.00018693
0.000203228
0.000220366
0.000238366
0.00025725
0.00027704
0.000297756
0.000319419
0.00034205
0.000365667
0.00039029
0.000415938
0.000442629
0.000470378
0.000499204
0.000529122
0.000560147
0.000592293
0.000625573
0.00066
0.000695587
0.000732342
0.000770277
0.000809399
0.000849717
0.000891237
0.000933965
0.000977904
0.00102306
0.00106943
0.00111702
0.00116583
0.00121585
0.00126708
0.00131952
0.00137317
0.00142801
0.00148404
0.00154125
0.00159962
0.00165915
0.00171981
0.0017816
0.0018445
0.00190849
0.00197355
0.00203965
0.00210679
0.00217492
0.00224404
0.0023141
0.00238508
0.00245696
0.0025297
0.00260327
0.00267763
0.00275275
0.0028286
0.00290514
0.00298232
0.00306011
0.00313846
0.00321734
0.0032967
0.0033765
0.00345668
0.00353721
0.00361804
0.00369911
0.00378039
0.00386181
0.00394332
0.00402489
0.00410644
0.00418794
0.00426932
0.00435054
0.00443154
0.00451226
0.00459265
0.00467265
0.00475222
0.00483129
0.0049098
0.00498771
0.00506496
0.00514149
0.00521725
0.00529219
0.00536624
0.00543936
0.00551149
0.00558258
0.00565258
0.00572144
0.00578911
0.00585553
0.00592066
0.00598446
0.00604686
0.00610784
0.00616734
0.00622532
0.00628174
0.00633657
0.00638975
0.00644125
0.00649104
0.00653908
0.00658534
0.00662978
0.00667238
0.00671311
0.00675194
0.00678884
0.0068238
0.00685679
0.00688779
0.00691679
0.00694376
0.0069687
0.00699159
0.00701242
0.00703118
0.00704787
0.00706248
0.007075
0.00708545
0.00709381
0.00710009
0.00710429
0.00710643
0.0071065
0.00710458
0.00710056
0.00709451
0.00708644
0.00707638
0.00706433
0.00705033
0.00703439
0.00701653
0.00699678
0.00697517
0.00695172
0.00692646
0.00689942
0.00687062
0.00684012
0.00680792
0.00677408
0.00673862
0.00670158
0.00666299
0.0066229
0.00658135
0.00653837
0.006494
0.00644828
0.00640126
0.00635297
0.00630346
0.00625278
0.00620095
0.00614804
0.00609407
0.0060391
0.00598316
0.00592631
0.00586858
0.00581002
0.00575068
0.00569059
0.0056298
0.00556835
0.00550629
0.00544366
0.00538051
0.00531686
0.00525277
0.00518828
0.00512343
0.00505825
0.00499279
0.00492708
0.00486117
0.0047951
0.00472889
0.00466259
0.00459623
0.00452985
0.00446348
0.00439715
0.0043309
0.00426476
0.00419876
0.00413294
0.00406731
0.00400191
0.00393677
0.00387191
0.00380736
0.00374314
0.00367928
0.00361581
0.00355274
0.0034901
0.0034279
0.00336617
0.00330493
0.00324419
0.00318397
0.00312428
0.00306516
0.0030066
0.00294862
0.00289124
0.00283446
0.00277831
0.00272278
0.00266789
0.00261366
0.00256008
0.00250716
0.00245492
0.00240336
0.00235249
0.0023023
0.00225281
0.00220402
0.00215592
0.00210854
0.00206186
0.00201588
0.00197062
0.00192606
0.00188222
0.00183908
0.00179665
0.00175493
0.00171391
0.0016736
0.00163398
0.00159506
0.00155684
0.0015193
0.00148245
0.00144627
0.00141078
0.00137595
0.00134179
0.00130829
0.00127545
0.00124325
0.00121169
0.00118077
0.00115048
0.00112081
0.00109175
0.0010633
0.00103545
0.00100819
0.000981521
0.000955426
0.000929901
0.000904938
0.000880528
0.000856664
0.000833338
0.000810542
0.000788267
0.000766505
0.000745249
0.000724489
0.000704219
0.000684429
0.000665111
0.000646258
0.00062786
0.000609911
0.000592402
0.000575324
0.00055867
0.000542431
0.000526601
0.00051117
0.000496132
0.000481478
0.0004672
0.000453292
0.000439745
0.000426552
0.000413706
0.0004012
0.000389025
0.000377176
0.000365645
0.000354424
0.000343508
0.00033289
0.000322562
0.000312518
0.000302752
0.000293257
0.000284027
0.000275056
0.000266338
0.000257867
0.000249636
0.00024164
0.000233874
0.000226331
0.000219007
0.000211896
0.000204992
0.000198291
0.000191787
0.000185475
0.00017935
0.000173408
0.000167644
0.000162053
0.000156631
0.000151374
0.000146276
0.000141334
0.000136543
0.0001319
0.0001274
0.00012304
0.000118816
0.000114724
0.000110761
0.000106922
0.000103205
9.96059e-05
9.61218e-05
9.27492e-05
8.94852e-05
8.63266e-05
8.32705e-05
8.0314e-05
7.74542e-05
7.46885e-05
7.20142e-05
6.94288e-05
6.69297e-05
6.45145e-05
6.21809e-05
5.99268e-05
5.77499e-05
5.56482e-05
5.36196e-05
5.16625e-05
4.97749e-05
4.79553e-05
4.6202e-05
4.45137e-05
4.28891e-05
4.1327e-05
3.98265e-05
3.83867e-05
3.70069e-05
3.56869e-05
3.44263e-05
3.32252e-05
3.2084e-05
3.10033e-05
2.99841e-05
2.90279e-05
2.81364e-05
2.73121e-05
2.65579e-05
2.58772e-05
2.52744e-05
2.47543e-05
2.43229e-05
2.39867e-05
2.37534e-05
2.36319e-05
1.87188e-06
6.0016e-06
1.05403e-05
1.55126e-05
2.09398e-05
2.68397e-05
3.32291e-05
4.01252e-05
4.75468e-05
5.55139e-05
6.40478e-05
7.31709e-05
8.29063e-05
9.32776e-05
0.000104309
0.000116023
0.000128446
0.0001416
0.00015551
0.000170199
0.000185691
0.000202009
0.000219176
0.000237215
0.000256149
0.000275999
0.000296786
0.000318533
0.00034126
0.000364987
0.000389733
0.000415519
0.000442362
0.000470281
0.000499292
0.000529412
0.000560657
0.000593042
0.000626581
0.000661287
0.000697172
0.000734247
0.000772524
0.000812011
0.000852716
0.000894647
0.00093781
0.00098221
0.00102785
0.00107473
0.00112286
0.00117223
0.00122285
0.0012747
0.00132779
0.00138212
0.00143766
0.00149443
0.0015524
0.00161156
0.00167191
0.00173344
0.00179611
0.00185992
0.00192486
0.00199089
0.00205801
0.00212618
0.00219538
0.00226559
0.00233678
0.00240892
0.00248198
0.00255594
0.00263075
0.00270639
0.00278281
0.00285999
0.00293788
0.00301644
0.00309564
0.00317543
0.00325577
0.00333662
0.00341792
0.00349964
0.00358172
0.00366412
0.00374679
0.00382967
0.00391272
0.00399589
0.00407912
0.00416235
0.00424554
0.00432864
0.00441157
0.0044943
0.00457677
0.00465891
0.00474067
0.004822
0.00490283
0.00498312
0.00506281
0.00514184
0.00522014
0.00529768
0.00537438
0.00545021
0.00552509
0.00559898
0.00567182
0.00574356
0.00581414
0.00588352
0.00595165
0.00601847
0.00608393
0.006148
0.00621061
0.00627173
0.00633131
0.0063893
0.00644567
0.00650038
0.00655338
0.00660464
0.00665413
0.0067018
0.00674763
0.00679158
0.00683363
0.00687375
0.00691191
0.00694808
0.00698225
0.0070144
0.0070445
0.00707254
0.00709851
0.00712239
0.00714416
0.00716383
0.00718139
0.00719682
0.00721013
0.0072213
0.00723036
0.00723729
0.0072421
0.00724479
0.00724537
0.00724393
0.00724035
0.00723468
0.00722694
0.00721716
0.00720536
0.00719155
0.00717576
0.00715801
0.00713832
0.00711673
0.00709325
0.00706792
0.00704077
0.00701182
0.00698111
0.00694867
0.00691454
0.00687876
0.00684135
0.00680236
0.00676183
0.00671979
0.00667628
0.00663135
0.00658504
0.00653738
0.00648842
0.00643821
0.00638679
0.0063342
0.00628048
0.00622568
0.00616984
0.00611301
0.00605524
0.00599656
0.00593703
0.00587668
0.00581556
0.00575372
0.0056912
0.00562805
0.0055643
0.00550001
0.00543521
0.00536994
0.00530426
0.0052382
0.0051718
0.0051051
0.00503815
0.00497097
0.00490362
0.00483613
0.00476853
0.00470087
0.00463318
0.00456548
0.00449783
0.00443025
0.00436278
0.00429544
0.00422827
0.0041613
0.00409455
0.00402806
0.00396186
0.00389596
0.0038304
0.0037652
0.00370038
0.00363598
0.003572
0.00350848
0.00344542
0.00338286
0.00332081
0.00325929
0.00319831
0.00313789
0.00307805
0.0030188
0.00296016
0.00290213
0.00284473
0.00278797
0.00273186
0.00267642
0.00262164
0.00256754
0.00251412
0.0024614
0.00240937
0.00235804
0.00230743
0.00225752
0.00220833
0.00215986
0.00211211
0.00206508
0.00201877
0.00197319
0.00192833
0.00188419
0.00184077
0.00179808
0.0017561
0.00171485
0.0016743
0.00163447
0.00159534
0.00155692
0.0015192
0.00148217
0.00144583
0.00141018
0.00137521
0.00134091
0.00130728
0.00127431
0.001242
0.00121034
0.00117931
0.00114893
0.00111917
0.00109003
0.00106151
0.00103359
0.00100628
0.000979547
0.000953401
0.00092783
0.000902824
0.000878378
0.000854481
0.000831126
0.000808305
0.000786009
0.00076423
0.000742959
0.000722188
0.00070191
0.000682115
0.000662795
0.000643941
0.000625546
0.000607602
0.000590099
0.00057303
0.000556387
0.000540161
0.000524345
0.00050893
0.000493909
0.000479274
0.000465016
0.000451129
0.000437604
0.000424435
0.000411613
0.000399131
0.000386982
0.000375159
0.000363654
0.000352462
0.000341573
0.000330983
0.000320684
0.000310669
0.000300933
0.000291467
0.000282267
0.000273326
0.000264638
0.000256197
0.000247996
0.000240031
0.000232294
0.000224782
0.000217487
0.000210406
0.000203532
0.00019686
0.000190385
0.000184102
0.000178007
0.000172093
0.000166357
0.000160795
0.0001554
0.00015017
0.000145099
0.000140184
0.00013542
0.000130803
0.000126329
0.000121994
0.000117795
0.000113728
0.000109789
0.000105974
0.000102281
9.8705e-05
9.52438e-05
9.18938e-05
8.8652e-05
8.55152e-05
8.24806e-05
7.95452e-05
7.67063e-05
7.39611e-05
7.1307e-05
6.87415e-05
6.6262e-05
6.38663e-05
6.1552e-05
5.93168e-05
5.71587e-05
5.50757e-05
5.30659e-05
5.11273e-05
4.92583e-05
4.74574e-05
4.57229e-05
4.40537e-05
4.24485e-05
4.09062e-05
3.94261e-05
3.80073e-05
3.66495e-05
3.53524e-05
3.4116e-05
3.29406e-05
3.18269e-05
3.07758e-05
2.97887e-05
2.88675e-05
2.80146e-05
2.72329e-05
2.65261e-05
2.58986e-05
2.53557e-05
2.49036e-05
2.45499e-05
2.4303e-05
2.41736e-05
1.84129e-06
5.90156e-06
1.03583e-05
1.52358e-05
2.05588e-05
2.63495e-05
3.26291e-05
3.94183e-05
4.6738e-05
5.46097e-05
6.30557e-05
7.20985e-05
8.17613e-05
9.20676e-05
0.000103041
0.000114705
0.000127085
0.000140203
0.000154083
0.00016875
0.000184226
0.000200536
0.000217703
0.000235749
0.000254698
0.000274571
0.000295391
0.00031718
0.000339959
0.000363748
0.000388568
0.000414439
0.000441379
0.000469408
0.000498542
0.0005288
0.000560196
0.000592748
0.000626469
0.000661373
0.000697474
0.000734782
0.00077331
0.000813066
0.00085406
0.000896299
0.000939791
0.000984539
0.00103055
0.00107782
0.00112637
0.00117617
0.00122725
0.00127958
0.00133318
0.00138804
0.00144414
0.00150148
0.00156006
0.00161985
0.00168086
0.00174306
0.00180644
0.00187099
0.00193668
0.0020035
0.00207142
0.00214043
0.00221049
0.00228159
0.00235369
0.00242678
0.00250081
0.00257575
0.00265158
0.00272826
0.00280575
0.00288402
0.00296302
0.00304273
0.00312309
0.00320406
0.00328561
0.00336768
0.00345023
0.00353322
0.00361659
0.0037003
0.00378429
0.00386852
0.00395293
0.00403748
0.0041221
0.00420674
0.00429136
0.00437588
0.00446027
0.00454445
0.00462838
0.004712
0.00479524
0.00487806
0.0049604
0.00504219
0.00512338
0.00520391
0.00528373
0.00536277
0.00544099
0.00551832
0.0055947
0.00567009
0.00574443
0.00581766
0.00588973
0.00596058
0.00603017
0.00609845
0.00616535
0.00623084
0.00629487
0.00635738
0.00641835
0.00647771
0.00653542
0.00659146
0.00664577
0.00669831
0.00674906
0.00679797
0.00684501
0.00689016
0.00693337
0.00697462
0.00701389
0.00705114
0.00708636
0.00711953
0.00715062
0.00717961
0.0072065
0.00723127
0.00725391
0.0072744
0.00729274
0.00730892
0.00732294
0.0073348
0.0073445
0.00735204
0.00735741
0.00736064
0.00736171
0.00736071
0.00735757
0.00735228
0.00734488
0.0073354
0.00732386
0.00731027
0.00729467
0.00727707
0.00725749
0.00723597
0.00721252
0.00718719
0.00715999
0.00713096
0.00710014
0.00706755
0.00703323
0.00699722
0.00695956
0.00692027
0.00687941
0.00683701
0.00679311
0.00674775
0.00670097
0.00665282
0.00660335
0.00655258
0.00650058
0.00644737
0.00639301
0.00633755
0.00628102
0.00622347
0.00616495
0.0061055
0.00604517
0.00598401
0.00592206
0.00585936
0.00579596
0.00573191
0.00566724
0.00560201
0.00553626
0.00547002
0.00540335
0.00533629
0.00526888
0.00520115
0.00513315
0.00506493
0.00499652
0.00492795
0.00485927
0.00479052
0.00472172
0.00465293
0.00458416
0.00451547
0.00444687
0.00437841
0.0043101
0.004242
0.00417412
0.00410649
0.00403915
0.00397212
0.00390542
0.00383908
0.00377313
0.0037076
0.00364249
0.00357784
0.00351366
0.00344998
0.00338682
0.00332419
0.00326211
0.00320059
0.00313966
0.00307933
0.00301961
0.00296051
0.00290206
0.00284425
0.00278709
0.00273061
0.00267481
0.00261969
0.00256527
0.00251155
0.00245854
0.00240624
0.00235466
0.00230381
0.00225367
0.00220427
0.0021556
0.00210766
0.00206046
0.00201399
0.00196826
0.00192326
0.001879
0.00183547
0.00179267
0.0017506
0.00170926
0.00166864
0.00162874
0.00158956
0.00155108
0.00151332
0.00147626
0.00143989
0.00140422
0.00136923
0.00133493
0.00130129
0.00126833
0.00123603
0.00120438
0.00117337
0.00114301
0.00111328
0.00108418
0.00105569
0.00102781
0.00100053
0.00097385
0.000947752
0.000922232
0.00089728
0.000872889
0.000849051
0.000825756
0.000802997
0.000780765
0.000759051
0.000737847
0.000717145
0.000696936
0.000677211
0.000657962
0.000639181
0.000620858
0.000602987
0.000585558
0.000568563
0.000551994
0.000535843
0.000520101
0.000504761
0.000489814
0.000475253
0.00046107
0.000447256
0.000433805
0.000420709
0.00040796
0.00039555
0.000383473
0.000371722
0.000360288
0.000349165
0.000338346
0.000327825
0.000317593
0.000307646
0.000297976
0.000288576
0.000279441
0.000270564
0.000261938
0.000253559
0.00024542
0.000237515
0.000229838
0.000222384
0.000215147
0.000208122
0.000201304
0.000194687
0.000188266
0.000182036
0.000175992
0.00017013
0.000164444
0.00015893
0.000153584
0.000148401
0.000143377
0.000138507
0.000133787
0.000129214
0.000124783
0.00012049
0.000116332
0.000112305
0.000108405
0.000104629
0.000100973
9.74341e-05
9.40089e-05
9.06942e-05
8.74868e-05
8.43838e-05
8.13822e-05
7.84791e-05
7.56718e-05
7.29576e-05
7.03338e-05
6.7798e-05
6.53477e-05
6.29806e-05
6.06944e-05
5.84869e-05
5.63561e-05
5.42999e-05
5.23165e-05
5.04042e-05
4.85613e-05
4.67863e-05
4.50779e-05
4.34346e-05
4.18556e-05
4.03398e-05
3.88866e-05
3.74954e-05
3.6166e-05
3.48982e-05
3.36925e-05
3.25493e-05
3.14697e-05
3.0455e-05
2.95071e-05
2.86284e-05
2.78218e-05
2.70913e-05
2.64413e-05
2.58774e-05
2.54064e-05
2.50364e-05
2.4777e-05
2.46402e-05
1.81568e-06
5.81774e-06
1.02061e-05
1.50034e-05
2.02359e-05
2.5929e-05
3.21075e-05
3.87954e-05
4.60163e-05
5.37936e-05
6.21506e-05
7.11108e-05
8.06975e-05
9.09342e-05
0.000101844
0.000113452
0.00012578
0.000138852
0.000152693
0.000167325
0.000182773
0.00019906
0.000216209
0.000234244
0.000253187
0.000273062
0.00029389
0.000315694
0.000338496
0.000362316
0.000387176
0.000413095
0.000440093
0.000468189
0.000497401
0.000527747
0.000559244
0.000591907
0.000625752
0.000660793
0.000697044
0.000734516
0.000773221
0.00081317
0.000854372
0.000896835
0.000940565
0.00098557
0.00103185
0.00107942
0.00112827
0.0011784
0.00122982
0.00128252
0.0013365
0.00139175
0.00144828
0.00150606
0.0015651
0.00162537
0.00168688
0.00174961
0.00181353
0.00187864
0.00194492
0.00201235
0.0020809
0.00215056
0.00222129
0.00229309
0.00236591
0.00243972
0.00251451
0.00259024
0.00266687
0.00274436
0.0028227
0.00290183
0.00298171
0.00306232
0.0031436
0.00322551
0.00330801
0.00339106
0.00347461
0.0035586
0.003643
0.00372776
0.00381281
0.00389812
0.00398362
0.00406927
0.004155
0.00424078
0.00432653
0.00441221
0.00449776
0.00458312
0.00466823
0.00475304
0.00483749
0.00492151
0.00500506
0.00508806
0.00517048
0.00525223
0.00533328
0.00541355
0.00549299
0.00557155
0.00564916
0.00572578
0.00580134
0.00587578
0.00594907
0.00602113
0.00609192
0.00616138
0.00622947
0.00629614
0.00636133
0.006425
0.0064871
0.00654759
0.00660642
0.00666356
0.00671895
0.00677256
0.00682436
0.0068743
0.00692235
0.00696849
0.00701267
0.00705487
0.00709507
0.00713323
0.00716933
0.00720335
0.00723528
0.00726508
0.00729275
0.00731828
0.00734164
0.00736284
0.00738185
0.00739868
0.00741332
0.00742577
0.00743602
0.00744409
0.00744996
0.00745365
0.00745517
0.00745455
0.00745182
0.00744687
0.00743978
0.00743058
0.00741929
0.00740593
0.00739051
0.00737306
0.00735361
0.00733219
0.0073088
0.0072835
0.00725631
0.00722725
0.00719637
0.00716369
0.00712926
0.0070931
0.00705525
0.00701577
0.00697467
0.006932
0.00688781
0.00684214
0.00679502
0.00674651
0.00669663
0.00664545
0.006593
0.00653933
0.00648448
0.00642849
0.00637143
0.00631332
0.00625422
0.00619418
0.00613323
0.00607142
0.00600881
0.00594544
0.00588134
0.00581658
0.00575119
0.00568522
0.00561871
0.0055517