/*--------------------------------*- C++ -*----------------------------------*\
  =========                 |
  \\      /  F ield         | OpenFOAM: The Open Source CFD Toolbox
   \\    /   O peration     | Website:  https://openfoam.org
    \\  /    A nd           | Version:  dev
     \\/     M anipulation  |
\*---------------------------------------------------------------------------*/
FoamFile
{
    format      ascii;
    class       volScalarField;
    location    "0.42";
    object      beta;
}
// * * * * * * * * * * * * * * * * * * * * * * * * * * * * * * * * * * * * * //

dimensions      [0 0 0 0 0 0 0];

internalField   uniform 0;

boundaryField
{
    frontAndBack
    {
        type            empty;
    }
    inlet
    {
        type            calculated;
        value           uniform 0;
    }
    outlet
    {
        type            calculated;
        value           uniform 0;
    }
    substrate
    {
        type            calculated;
        value           nonuniform List<scalar> 
400
(
0.00276608
0.00290564
0.00300803
0.00310162
0.00319055
0.00327519
0.00335654
0.00343547
0.00351263
0.00358845
0.00366328
0.00373739
0.00381096
0.00388416
0.00395709
0.00402986
0.00410251
0.00417508
0.00424762
0.00432013
0.00439261
0.00446507
0.0045375
0.00460988
0.00468221
0.00475444
0.00482658
0.00489859
0.00497045
0.00504214
0.00511363
0.00518489
0.00525591
0.00532665
0.0053971
0.00546722
0.005537
0.0056064
0.00567542
0.00574402
0.00581218
0.00587989
0.00594712
0.00601386
0.00608009
0.00614578
0.00621093
0.00627551
0.00633951
0.00640292
0.00646572
0.0065279
0.00658944
0.00665034
0.00671059
0.00677017
0.00682908
0.0068873
0.00694484
0.00700167
0.00705781
0.00711323
0.00716794
0.00722193
0.0072752
0.00732775
0.00737957
0.00743065
0.00748101
0.00753064
0.00757954
0.00762771
0.00767514
0.00772185
0.00776784
0.0078131
0.00785763
0.00790145
0.00794456
0.00798695
0.00802864
0.00806962
0.00810991
0.0081495
0.00818841
0.00822664
0.00826419
0.00830107
0.00833729
0.00837285
0.00840777
0.00844204
0.00847567
0.00850868
0.00854107
0.00857284
0.00860401
0.00863458
0.00866456
0.00869396
0.00872278
0.00875104
0.00877874
0.00880588
0.00883249
0.00885856
0.0088841
0.00890913
0.00893364
0.00895765
0.00898117
0.00900421
0.00902676
0.00904885
0.00907047
0.00909164
0.00911236
0.00913264
0.00915249
0.00917192
0.00919093
0.00920954
0.00922774
0.00924555
0.00926298
0.00928002
0.0092967
0.00931301
0.00932896
0.00934456
0.00935981
0.00937473
0.00938932
0.00940359
0.00941753
0.00943117
0.0094445
0.00945753
0.00947027
0.00948272
0.00949489
0.00950679
0.00951841
0.00952978
0.00954088
0.00955173
0.00956233
0.0095727
0.00958282
0.00959271
0.00960237
0.00961182
0.00962104
0.00963005
0.00963885
0.00964745
0.00965585
0.00966406
0.00967207
0.0096799
0.00968755
0.00969501
0.00970231
0.00970943
0.00971639
0.00972318
0.00972981
0.00973629
0.00974262
0.00974879
0.00975482
0.00976071
0.00976646
0.00977208
0.00977756
0.00978291
0.00978814
0.00979324
0.00979822
0.00980308
0.00980783
0.00981247
0.00981699
0.00982141
0.00982572
0.00982993
0.00983404
0.00983805
0.00984196
0.00984578
0.00984951
0.00985316
0.00985671
0.00986018
0.00986356
0.00986687
0.00987009
0.00987324
0.00987631
0.00987931
0.00988224
0.0098851
0.00988788
0.0098906
0.00989326
0.00989585
0.00989838
0.00990085
0.00990326
0.00990561
0.0099079
0.00991014
0.00991233
0.00991446
0.00991654
0.00991857
0.00992055
0.00992248
0.00992437
0.00992621
0.00992801
0.00992976
0.00993147
0.00993314
0.00993477
0.00993636
0.00993791
0.00993942
0.0099409
0.00994234
0.00994375
0.00994512
0.00994646
0.00994776
0.00994904
0.00995028
0.0099515
0.00995268
0.00995384
0.00995496
0.00995606
0.00995714
0.00995818
0.0099592
0.0099602
0.00996117
0.00996212
0.00996305
0.00996395
0.00996483
0.00996569
0.00996653
0.00996735
0.00996815
0.00996893
0.00996969
0.00997043
0.00997116
0.00997186
0.00997255
0.00997323
0.00997388
0.00997452
0.00997515
0.00997576
0.00997635
0.00997693
0.0099775
0.00997805
0.00997859
0.00997911
0.00997962
0.00998012
0.00998061
0.00998109
0.00998155
0.00998201
0.00998245
0.00998288
0.0099833
0.00998371
0.00998411
0.0099845
0.00998488
0.00998526
0.00998562
0.00998597
0.00998632
0.00998666
0.00998699
0.00998731
0.00998762
0.00998792
0.00998822
0.00998851
0.0099888
0.00998907
0.00998934
0.00998961
0.00998986
0.00999011
0.00999036
0.0099906
0.00999083
0.00999106
0.00999128
0.00999149
0.00999171
0.00999191
0.00999211
0.00999231
0.0099925
0.00999268
0.00999287
0.00999304
0.00999322
0.00999339
0.00999355
0.00999371
0.00999387
0.00999402
0.00999417
0.00999431
0.00999446
0.00999459
0.00999473
0.00999486
0.00999499
0.00999512
0.00999524
0.00999536
0.00999547
0.00999559
0.0099957
0.00999581
0.00999591
0.00999601
0.00999611
0.00999621
0.00999631
0.0099964
0.00999649
0.00999658
0.00999667
0.00999675
0.00999683
0.00999691
0.00999699
0.00999707
0.00999714
0.00999721
0.00999728
0.00999735
0.00999742
0.00999749
0.00999755
0.00999761
0.00999767
0.00999773
0.00999779
0.00999785
0.0099979
0.00999795
0.00999801
0.00999806
0.00999811
0.00999816
0.0099982
0.00999825
0.00999829
0.00999834
0.00999838
0.00999842
0.00999846
0.0099985
0.00999854
0.00999857
0.00999861
0.00999864
0.00999868
0.00999871
0.00999874
0.00999877
0.0099988
0.00999883
0.00999885
0.00999888
0.0099989
0.00999893
0.00999895
0.00999897
0.00999899
0.00999901
0.00999902
0.00999904
0.00999905
0.00999906
0.00999906
0.00999907
0.00999907
)
;
    }
    Wall
    {
        type            calculated;
        value           nonuniform List<scalar> 
400
(
0.00276608
0.00290564
0.00300802
0.00310161
0.00319055
0.0032752
0.00335655
0.00343549
0.00351265
0.00358847
0.00366331
0.00373741
0.00381099
0.00388418
0.00395712
0.00402988
0.00410253
0.0041751
0.00424764
0.00432014
0.00439263
0.00446509
0.00453751
0.00460989
0.00468221
0.00475445
0.00482659
0.00489859
0.00497045
0.00504214
0.00511363
0.00518489
0.00525591
0.00532665
0.00539709
0.00546721
0.00553699
0.00560639
0.00567541
0.00574401
0.00581217
0.00587988
0.00594711
0.00601385
0.00608007
0.00614577
0.00621091
0.00627549
0.00633949
0.0064029
0.0064657
0.00652788
0.00658942
0.00665033
0.00671057
0.00677015
0.00682906
0.00688728
0.00694482
0.00700165
0.00705779
0.00711321
0.00716792
0.00722191
0.00727518
0.00732773
0.00737954
0.00743063
0.00748099
0.00753062
0.00757952
0.00762769
0.00767512
0.00772183
0.00776782
0.00781307
0.00785761
0.00790143
0.00794454
0.00798693
0.00802862
0.0080696
0.00810989
0.00814948
0.00818839
0.00822662
0.00826417
0.00830105
0.00833727
0.00837284
0.00840775
0.00844202
0.00847566
0.00850867
0.00854105
0.00857283
0.008604
0.00863457
0.00866455
0.00869395
0.00872277
0.00875103
0.00877872
0.00880587
0.00883248
0.00885855
0.00888409
0.00890911
0.00893363
0.00895764
0.00898116
0.00900419
0.00902675
0.00904883
0.00907046
0.00909163
0.00911235
0.00913263
0.00915248
0.00917191
0.00919092
0.00920953
0.00922773
0.00924554
0.00926297
0.00928001
0.00929669
0.009313
0.00932895
0.00934455
0.00935981
0.00937473
0.00938932
0.00940358
0.00941753
0.00943116
0.00944449
0.00945752
0.00947026
0.00948272
0.00949489
0.00950678
0.00951841
0.00952977
0.00954087
0.00955173
0.00956233
0.00957269
0.00958281
0.0095927
0.00960237
0.00961181
0.00962104
0.00963005
0.00963885
0.00964745
0.00965585
0.00966405
0.00967207
0.0096799
0.00968754
0.00969501
0.0097023
0.00970943
0.00971638
0.00972318
0.00972981
0.00973629
0.00974261
0.00974879
0.00975482
0.00976071
0.00976646
0.00977208
0.00977756
0.00978291
0.00978814
0.00979324
0.00979822
0.00980308
0.00980783
0.00981246
0.00981699
0.00982141
0.00982572
0.00982993
0.00983404
0.00983805
0.00984196
0.00984578
0.00984951
0.00985315
0.00985671
0.00986018
0.00986356
0.00986687
0.00987009
0.00987324
0.00987631
0.00987931
0.00988224
0.00988509
0.00988788
0.0098906
0.00989326
0.00989585
0.00989838
0.00990085
0.00990326
0.00990561
0.0099079
0.00991014
0.00991232
0.00991446
0.00991654
0.00991857
0.00992055
0.00992248
0.00992437
0.00992621
0.00992801
0.00992976
0.00993147
0.00993314
0.00993477
0.00993636
0.00993791
0.00993942
0.0099409
0.00994234
0.00994375
0.00994512
0.00994646
0.00994776
0.00994904
0.00995028
0.0099515
0.00995268
0.00995383
0.00995496
0.00995606
0.00995714
0.00995818
0.0099592
0.0099602
0.00996117
0.00996212
0.00996305
0.00996395
0.00996483
0.00996569
0.00996653
0.00996735
0.00996815
0.00996893
0.00996969
0.00997043
0.00997116
0.00997186
0.00997255
0.00997322
0.00997388
0.00997452
0.00997515
0.00997575
0.00997635
0.00997693
0.00997749
0.00997805
0.00997859
0.00997911
0.00997962
0.00998012
0.00998061
0.00998109
0.00998155
0.00998201
0.00998245
0.00998288
0.0099833
0.00998371
0.00998411
0.0099845
0.00998488
0.00998526
0.00998562
0.00998597
0.00998632
0.00998666
0.00998699
0.00998731
0.00998762
0.00998792
0.00998822
0.00998851
0.0099888
0.00998907
0.00998934
0.00998961
0.00998986
0.00999011
0.00999036
0.0099906
0.00999083
0.00999106
0.00999128
0.00999149
0.00999171
0.00999191
0.00999211
0.00999231
0.0099925
0.00999268
0.00999287
0.00999304
0.00999322
0.00999339
0.00999355
0.00999371
0.00999387
0.00999402
0.00999417
0.00999431
0.00999446
0.00999459
0.00999473
0.00999486
0.00999499
0.00999512
0.00999524
0.00999536
0.00999547
0.00999559
0.0099957
0.00999581
0.00999591
0.00999601
0.00999611
0.00999621
0.00999631
0.0099964
0.00999649
0.00999658
0.00999667
0.00999675
0.00999683
0.00999691
0.00999699
0.00999707
0.00999714
0.00999721
0.00999728
0.00999735
0.00999742
0.00999749
0.00999755
0.00999761
0.00999767
0.00999773
0.00999779
0.00999785
0.0099979
0.00999795
0.00999801
0.00999806
0.00999811
0.00999816
0.0099982
0.00999825
0.00999829
0.00999834
0.00999838
0.00999842
0.00999846
0.0099985
0.00999854
0.00999857
0.00999861
0.00999864
0.00999868
0.00999871
0.00999874
0.00999877
0.0099988
0.00999883
0.00999885
0.00999888
0.0099989
0.00999893
0.00999895
0.00999897
0.00999899
0.00999901
0.00999902
0.00999904
0.00999905
0.00999906
0.00999906
0.00999907
0.00999907
)
;
    }
}


// ************************************************************************* //
