/*--------------------------------*- C++ -*----------------------------------*\
  =========                 |
  \\      /  F ield         | OpenFOAM: The Open Source CFD Toolbox
   \\    /   O peration     | Website:  https://openfoam.org
    \\  /    A nd           | Version:  dev
     \\/     M anipulation  |
\*---------------------------------------------------------------------------*/
FoamFile
{
    format      ascii;
    class       volScalarField;
    location    "0.42";
    object      Exp1;
}
// * * * * * * * * * * * * * * * * * * * * * * * * * * * * * * * * * * * * * //

dimensions      [0 0 0 0 0 0 0];

internalField   uniform 0;

boundaryField
{
    frontAndBack
    {
        type            empty;
    }
    inlet
    {
        type            calculated;
        value           uniform 0;
    }
    outlet
    {
        type            calculated;
        value           uniform 0;
    }
    substrate
    {
        type            calculated;
        value           nonuniform List<scalar> 
400
(
3.841e-11
1.22335e-10
2.14659e-10
3.14988e-10
4.23381e-10
5.40207e-10
6.65824e-10
8.00608e-10
9.44978e-10
1.09939e-09
1.26433e-09
1.44031e-09
1.62785e-09
1.82749e-09
2.03978e-09
2.26529e-09
2.50459e-09
2.75825e-09
3.02686e-09
3.31102e-09
3.61131e-09
3.92836e-09
4.26278e-09
4.61519e-09
4.98622e-09
5.37652e-09
5.78674e-09
6.21754e-09
6.6696e-09
7.14361e-09
7.64025e-09
8.16024e-09
8.7043e-09
9.27316e-09
9.86756e-09
1.04883e-08
1.11361e-08
1.18117e-08
1.2516e-08
1.32498e-08
1.40138e-08
1.4809e-08
1.56362e-08
1.64962e-08
1.739e-08
1.83185e-08
1.92825e-08
2.02829e-08
2.13209e-08
2.23972e-08
2.35129e-08
2.4669e-08
2.58665e-08
2.71064e-08
2.83898e-08
2.97178e-08
3.10914e-08
3.25117e-08
3.39799e-08
3.54971e-08
3.70645e-08
3.86833e-08
4.03546e-08
4.20797e-08
4.38598e-08
4.56962e-08
4.75903e-08
4.95431e-08
5.15563e-08
5.36309e-08
5.57685e-08
5.79705e-08
6.02381e-08
6.2573e-08
6.49765e-08
6.74501e-08
6.99953e-08
7.26137e-08
7.53068e-08
7.80762e-08
8.09234e-08
8.38501e-08
8.68579e-08
8.99485e-08
9.31235e-08
9.63848e-08
9.97339e-08
1.03173e-07
1.06703e-07
1.10326e-07
1.14045e-07
1.1786e-07
1.21774e-07
1.25789e-07
1.29906e-07
1.34128e-07
1.38456e-07
1.42892e-07
1.47439e-07
1.52098e-07
1.56872e-07
1.61761e-07
1.6677e-07
1.71898e-07
1.7715e-07
1.82526e-07
1.88029e-07
1.9366e-07
1.99423e-07
2.05319e-07
2.11351e-07
2.1752e-07
2.23829e-07
2.3028e-07
2.36875e-07
2.43617e-07
2.50507e-07
2.57548e-07
2.64742e-07
2.72092e-07
2.79599e-07
2.87266e-07
2.95095e-07
3.03088e-07
3.11248e-07
3.19576e-07
3.28075e-07
3.36748e-07
3.45596e-07
3.54621e-07
3.63826e-07
3.73213e-07
3.82785e-07
3.92542e-07
4.02488e-07
4.12624e-07
4.22952e-07
4.33475e-07
4.44195e-07
4.55113e-07
4.66232e-07
4.77553e-07
4.89078e-07
5.0081e-07
5.1275e-07
5.249e-07
5.37261e-07
5.49835e-07
5.62625e-07
5.75631e-07
5.88855e-07
6.02299e-07
6.15964e-07
6.29851e-07
6.43962e-07
6.58298e-07
6.72861e-07
6.87651e-07
7.02669e-07
7.17917e-07
7.33396e-07
7.49106e-07
7.65047e-07
7.81222e-07
7.9763e-07
8.14273e-07
8.31149e-07
8.48261e-07
8.65607e-07
8.83189e-07
9.01006e-07
9.19058e-07
9.37346e-07
9.55868e-07
9.74626e-07
9.93617e-07
1.01284e-06
1.0323e-06
1.05199e-06
1.07191e-06
1.09207e-06
1.11245e-06
1.13306e-06
1.15389e-06
1.17496e-06
1.19624e-06
1.21775e-06
1.23948e-06
1.26143e-06
1.28359e-06
1.30596e-06
1.32855e-06
1.35135e-06
1.37435e-06
1.39756e-06
1.42097e-06
1.44457e-06
1.46837e-06
1.49237e-06
1.51654e-06
1.54091e-06
1.56545e-06
1.59017e-06
1.61506e-06
1.64012e-06
1.66535e-06
1.69073e-06
1.71627e-06
1.74196e-06
1.7678e-06
1.79377e-06
1.81989e-06
1.84613e-06
1.87249e-06
1.89898e-06
1.92558e-06
1.95228e-06
1.97909e-06
2.00599e-06
2.03298e-06
2.06006e-06
2.08721e-06
2.11443e-06
2.14172e-06
2.16906e-06
2.19645e-06
2.22388e-06
2.25135e-06
2.27885e-06
2.30637e-06
2.3339e-06
2.36144e-06
2.38897e-06
2.4165e-06
2.444e-06
2.47149e-06
2.49893e-06
2.52634e-06
2.5537e-06
2.581e-06
2.60823e-06
2.63539e-06
2.66246e-06
2.68945e-06
2.71633e-06
2.7431e-06
2.76976e-06
2.79629e-06
2.82269e-06
2.84894e-06
2.87504e-06
2.90098e-06
2.92675e-06
2.95234e-06
2.97775e-06
3.00296e-06
3.02796e-06
3.05275e-06
3.07732e-06
3.10166e-06
3.12575e-06
3.1496e-06
3.1732e-06
3.19653e-06
3.21958e-06
3.24235e-06
3.26483e-06
3.28702e-06
3.30889e-06
3.33045e-06
3.35169e-06
3.37259e-06
3.39316e-06
3.41338e-06
3.43324e-06
3.45274e-06
3.47187e-06
3.49062e-06
3.50899e-06
3.52697e-06
3.54455e-06
3.56172e-06
3.57848e-06
3.59483e-06
3.61074e-06
3.62623e-06
3.64127e-06
3.65588e-06
3.67003e-06
3.68373e-06
3.69697e-06
3.70975e-06
3.72205e-06
3.73388e-06
3.74523e-06
3.75609e-06
3.76646e-06
3.77634e-06
3.78573e-06
3.79461e-06
3.80299e-06
3.81086e-06
3.81822e-06
3.82507e-06
3.83141e-06
3.83722e-06
3.84251e-06
3.84728e-06
3.85153e-06
3.85525e-06
3.85845e-06
3.86111e-06
3.86325e-06
3.86486e-06
3.86594e-06
3.86648e-06
3.8665e-06
3.866e-06
3.86496e-06
3.86339e-06
3.86129e-06
3.85866e-06
3.85551e-06
3.85184e-06
3.84764e-06
3.84293e-06
3.8377e-06
3.83195e-06
3.82569e-06
3.81892e-06
3.81165e-06
3.80388e-06
3.7956e-06
3.78684e-06
3.77758e-06
3.76784e-06
3.75761e-06
3.74691e-06
3.73574e-06
3.7241e-06
3.712e-06
3.69945e-06
3.68644e-06
3.673e-06
3.65912e-06
3.6448e-06
3.63007e-06
3.61492e-06
3.59936e-06
3.5834e-06
3.56705e-06
3.55032e-06
3.53321e-06
3.51573e-06
3.4979e-06
3.47972e-06
3.4612e-06
3.44236e-06
3.4232e-06
3.40373e-06
3.38398e-06
3.36394e-06
3.34364e-06
3.32309e-06
3.30229e-06
3.28128e-06
3.26006e-06
3.23865e-06
3.21707e-06
3.19534e-06
3.17348e-06
3.15151e-06
3.12946e-06
3.10735e-06
3.08521e-06
3.06307e-06
3.04096e-06
3.01891e-06
2.99697e-06
2.97517e-06
2.95356e-06
2.93219e-06
2.9111e-06
2.89035e-06
2.87001e-06
2.85014e-06
2.83082e-06
2.81212e-06
2.79414e-06
2.77696e-06
2.76069e-06
2.74544e-06
2.73132e-06
2.71848e-06
2.70704e-06
2.69714e-06
2.68895e-06
2.6826e-06
2.67825e-06
2.67602e-06
)
;
    }
    Wall
    {
        type            calculated;
        value           nonuniform List<scalar> 
400
(
3.84094e-11
1.22333e-10
2.14655e-10
3.14982e-10
4.23372e-10
5.40195e-10
6.65809e-10
8.00588e-10
9.44954e-10
1.09936e-09
1.2643e-09
1.44027e-09
1.6278e-09
1.82743e-09
2.03972e-09
2.26522e-09
2.5045e-09
2.75815e-09
3.02675e-09
3.31089e-09
3.61118e-09
3.92822e-09
4.26262e-09
4.61501e-09
4.98603e-09
5.37632e-09
5.78653e-09
6.21732e-09
6.66937e-09
7.14336e-09
7.63999e-09
8.15996e-09
8.70401e-09
9.27285e-09
9.86724e-09
1.04879e-08
1.11357e-08
1.18113e-08
1.25156e-08
1.32493e-08
1.40134e-08
1.48086e-08
1.56357e-08
1.64958e-08
1.73895e-08
1.83179e-08
1.92819e-08
2.02824e-08
2.13203e-08
2.23966e-08
2.35122e-08
2.46683e-08
2.58658e-08
2.71057e-08
2.8389e-08
2.9717e-08
3.10905e-08
3.25108e-08
3.3979e-08
3.54962e-08
3.70635e-08
3.86823e-08
4.03535e-08
4.20786e-08
4.38587e-08
4.56951e-08
4.75891e-08
4.95419e-08
5.1555e-08
5.36296e-08
5.57672e-08
5.79691e-08
6.02367e-08
6.25715e-08
6.4975e-08
6.74485e-08
6.99937e-08
7.26121e-08
7.53051e-08
7.80744e-08
8.09215e-08
8.38482e-08
8.68559e-08
8.99465e-08
9.31215e-08
9.63826e-08
9.97317e-08
1.0317e-07
1.06701e-07
1.10324e-07
1.14042e-07
1.17858e-07
1.21772e-07
1.25786e-07
1.29903e-07
1.34125e-07
1.38453e-07
1.42889e-07
1.47436e-07
1.52095e-07
1.56868e-07
1.61758e-07
1.66766e-07
1.71895e-07
1.77146e-07
1.82522e-07
1.88025e-07
1.93656e-07
1.99419e-07
2.05315e-07
2.11347e-07
2.17516e-07
2.23825e-07
2.30275e-07
2.3687e-07
2.43612e-07
2.50502e-07
2.57543e-07
2.64737e-07
2.72086e-07
2.79593e-07
2.8726e-07
2.95089e-07
3.03082e-07
3.11241e-07
3.1957e-07
3.28069e-07
3.36741e-07
3.45589e-07
3.54614e-07
3.63819e-07
3.73206e-07
3.82777e-07
3.92534e-07
4.0248e-07
4.12616e-07
4.22944e-07
4.33467e-07
4.44186e-07
4.55104e-07
4.66223e-07
4.77544e-07
4.89069e-07
5.00801e-07
5.1274e-07
5.2489e-07
5.37251e-07
5.49825e-07
5.62614e-07
5.7562e-07
5.88844e-07
6.02288e-07
6.15952e-07
6.29839e-07
6.4395e-07
6.58286e-07
6.72849e-07
6.87638e-07
7.02657e-07
7.17904e-07
7.33383e-07
7.49092e-07
7.65034e-07
7.81208e-07
7.97616e-07
8.14258e-07
8.31135e-07
8.48246e-07
8.65592e-07
8.83173e-07
9.0099e-07
9.19042e-07
9.3733e-07
9.55852e-07
9.74609e-07
9.936e-07
1.01282e-06
1.03228e-06
1.05197e-06
1.07189e-06
1.09205e-06
1.11243e-06
1.13304e-06
1.15388e-06
1.17494e-06
1.19622e-06
1.21773e-06
1.23946e-06
1.2614e-06
1.28357e-06
1.30594e-06
1.32853e-06
1.35133e-06
1.37433e-06
1.39754e-06
1.42095e-06
1.44455e-06
1.46835e-06
1.49234e-06
1.51652e-06
1.54088e-06
1.56543e-06
1.59015e-06
1.61504e-06
1.6401e-06
1.66532e-06
1.69071e-06
1.71625e-06
1.74194e-06
1.76777e-06
1.79375e-06
1.81986e-06
1.8461e-06
1.87246e-06
1.89895e-06
1.92555e-06
1.95225e-06
1.97906e-06
2.00596e-06
2.03295e-06
2.06003e-06
2.08718e-06
2.1144e-06
2.14169e-06
2.16903e-06
2.19642e-06
2.22385e-06
2.25132e-06
2.27882e-06
2.30634e-06
2.33387e-06
2.3614e-06
2.38894e-06
2.41646e-06
2.44397e-06
2.47145e-06
2.4989e-06
2.52631e-06
2.55366e-06
2.58096e-06
2.60819e-06
2.63535e-06
2.66243e-06
2.68941e-06
2.71629e-06
2.74307e-06
2.76972e-06
2.79625e-06
2.82265e-06
2.8489e-06
2.875e-06
2.90094e-06
2.92671e-06
2.9523e-06
2.97771e-06
3.00292e-06
3.02792e-06
3.05271e-06
3.07728e-06
3.10162e-06
3.12572e-06
3.14957e-06
3.17316e-06
3.19649e-06
3.21954e-06
3.24231e-06
3.26479e-06
3.28698e-06
3.30885e-06
3.33041e-06
3.35165e-06
3.37255e-06
3.39312e-06
3.41334e-06
3.4332e-06
3.4527e-06
3.47183e-06
3.49058e-06
3.50895e-06
3.52693e-06
3.54451e-06
3.56168e-06
3.57844e-06
3.59478e-06
3.6107e-06
3.62619e-06
3.64123e-06
3.65584e-06
3.66999e-06
3.68369e-06
3.69693e-06
3.70971e-06
3.72201e-06
3.73384e-06
3.74519e-06
3.75605e-06
3.76642e-06
3.77631e-06
3.78569e-06
3.79457e-06
3.80295e-06
3.81083e-06
3.81819e-06
3.82504e-06
3.83137e-06
3.83718e-06
3.84248e-06
3.84725e-06
3.8515e-06
3.85522e-06
3.85841e-06
3.86108e-06
3.86322e-06
3.86483e-06
3.8659e-06
3.86645e-06
3.86647e-06
3.86596e-06
3.86493e-06
3.86336e-06
3.86126e-06
3.85863e-06
3.85548e-06
3.85181e-06
3.84761e-06
3.8429e-06
3.83767e-06
3.83192e-06
3.82566e-06
3.8189e-06
3.81162e-06
3.80385e-06
3.79558e-06
3.78681e-06
3.77755e-06
3.76781e-06
3.75759e-06
3.74689e-06
3.73571e-06
3.72408e-06
3.71198e-06
3.69942e-06
3.68642e-06
3.67298e-06
3.6591e-06
3.64478e-06
3.63005e-06
3.6149e-06
3.59934e-06
3.58338e-06
3.56703e-06
3.5503e-06
3.53319e-06
3.51571e-06
3.49788e-06
3.4797e-06
3.46118e-06
3.44234e-06
3.42318e-06
3.40372e-06
3.38396e-06
3.36393e-06
3.34363e-06
3.32307e-06
3.30228e-06
3.28126e-06
3.26004e-06
3.23864e-06
3.21706e-06
3.19533e-06
3.17347e-06
3.1515e-06
3.12945e-06
3.10734e-06
3.0852e-06
3.06306e-06
3.04095e-06
3.0189e-06
2.99696e-06
2.97516e-06
2.95355e-06
2.93218e-06
2.91109e-06
2.89034e-06
2.87e-06
2.85014e-06
2.83082e-06
2.81212e-06
2.79413e-06
2.77696e-06
2.76069e-06
2.74543e-06
2.73132e-06
2.71848e-06
2.70704e-06
2.69715e-06
2.68895e-06
2.68261e-06
2.67826e-06
2.67603e-06
)
;
    }
}


// ************************************************************************* //
