/*--------------------------------*- C++ -*----------------------------------*\
  =========                 |
  \\      /  F ield         | OpenFOAM: The Open Source CFD Toolbox
   \\    /   O peration     | Website:  https://openfoam.org
    \\  /    A nd           | Version:  dev
     \\/     M anipulation  |
\*---------------------------------------------------------------------------*/
FoamFile
{
    format      ascii;
    class       volScalarField;
    location    "0.42";
    object      growth;
}
// * * * * * * * * * * * * * * * * * * * * * * * * * * * * * * * * * * * * * //

dimensions      [0 0 0 0 0 0 0];

internalField   uniform 0;

boundaryField
{
    frontAndBack
    {
        type            empty;
    }
    inlet
    {
        type            calculated;
        value           uniform 0;
    }
    outlet
    {
        type            calculated;
        value           uniform 0;
    }
    substrate
    {
        type            calculated;
        value           nonuniform List<scalar> 
400
(
0.723392
0.709436
0.699197
0.689838
0.680945
0.672481
0.664346
0.656453
0.648737
0.641155
0.633672
0.626261
0.618904
0.611584
0.604291
0.597014
0.589749
0.582492
0.575238
0.567987
0.560739
0.553493
0.54625
0.539012
0.531779
0.524556
0.517342
0.510141
0.502955
0.495786
0.488637
0.481511
0.474409
0.467335
0.46029
0.453278
0.4463
0.43936
0.432458
0.425598
0.418782
0.412011
0.405288
0.398614
0.391991
0.385422
0.378907
0.372449
0.366049
0.359708
0.353428
0.34721
0.341056
0.334966
0.328941
0.322983
0.317092
0.31127
0.305516
0.299833
0.294219
0.288677
0.283206
0.277807
0.27248
0.267225
0.262043
0.256935
0.251899
0.246936
0.242046
0.237229
0.232486
0.227815
0.223216
0.21869
0.214237
0.209855
0.205544
0.201305
0.197136
0.193038
0.189009
0.18505
0.181159
0.177336
0.173581
0.169893
0.166271
0.162715
0.159223
0.155796
0.152433
0.149132
0.145893
0.142716
0.139599
0.136542
0.133544
0.130604
0.127722
0.124896
0.122126
0.119412
0.116751
0.114144
0.11159
0.109087
0.106636
0.104235
0.101883
0.0995794
0.0973239
0.0951155
0.0929532
0.0908364
0.0887643
0.086736
0.0847508
0.0828079
0.0809066
0.0790462
0.0772258
0.0754447
0.0737023
0.0719977
0.0703303
0.0686994
0.0671043
0.0655442
0.0640185
0.0625266
0.0610677
0.0596413
0.0582466
0.056883
0.05555
0.0542468
0.052973
0.0517278
0.0505107
0.0493212
0.0481585
0.0470223
0.045912
0.0448269
0.0437666
0.0427305
0.0417181
0.040729
0.0397626
0.0388184
0.037896
0.0369949
0.0361146
0.0352546
0.0344146
0.0335941
0.0327927
0.0320099
0.0312453
0.0304986
0.0297693
0.029057
0.0283614
0.0276821
0.0270187
0.026371
0.0257384
0.0251207
0.0245175
0.0239286
0.0233536
0.0227921
0.0222439
0.0217086
0.0211861
0.0206759
0.0201778
0.0196915
0.0192168
0.0187533
0.0183009
0.0178592
0.017428
0.0170071
0.0165963
0.0161952
0.0158037
0.0154216
0.0150486
0.0146845
0.0143291
0.0139822
0.0136436
0.0133132
0.0129906
0.0126758
0.0123686
0.0120687
0.011776
0.0114904
0.0112116
0.0109395
0.010674
0.0104148
0.0101619
0.0099151
0.00967423
0.00943916
0.00920976
0.00898589
0.00876742
0.00855422
0.00834617
0.00814314
0.00794502
0.00775168
0.00756301
0.00737891
0.00719925
0.00702394
0.00685287
0.00668594
0.00652305
0.0063641
0.00620901
0.00605766
0.00590999
0.00576589
0.00562528
0.00548808
0.00535421
0.00522358
0.00509612
0.00497175
0.0048504
0.004732
0.00461646
0.00450374
0.00439374
0.00428642
0.00418171
0.00407953
0.00397984
0.00388257
0.00378767
0.00369507
0.00360472
0.00351656
0.00343055
0.00334663
0.00326475
0.00318486
0.00310691
0.00303086
0.00295666
0.00288427
0.00281363
0.00274472
0.00267748
0.00261187
0.00254787
0.00248542
0.00242449
0.00236504
0.00230704
0.00225046
0.00219525
0.00214139
0.00208883
0.00203756
0.00198754
0.00193873
0.00189111
0.00184466
0.00179933
0.00175511
0.00171197
0.00166988
0.00162881
0.00158875
0.00154966
0.00151152
0.00147432
0.00143802
0.0014026
0.00136805
0.00133434
0.00130146
0.00126937
0.00123807
0.00120753
0.00117774
0.00114867
0.00112031
0.00109264
0.00106565
0.00103932
0.00101363
0.000988568
0.000964117
0.000940262
0.00091699
0.000894286
0.000872137
0.000850528
0.000829447
0.000808881
0.000788817
0.000769244
0.000750148
0.000731519
0.000713346
0.000695617
0.000678321
0.000661448
0.000644987
0.000628929
0.000613264
0.000597982
0.000583074
0.000568531
0.000554343
0.000540503
0.000527002
0.000513831
0.000500983
0.00048845
0.000476224
0.000464297
0.000452663
0.000441314
0.000430244
0.000419445
0.000408911
0.000398635
0.000388612
0.000378835
0.000369299
0.000359996
0.000350923
0.000342072
0.00033344
0.00032502
0.000316807
0.000308797
0.000300984
0.000293364
0.000285932
0.000278684
0.000271615
0.000264721
0.000257998
0.000251441
0.000245047
0.000238813
0.000232734
0.000226806
0.000221027
0.000215392
0.000209899
0.000204544
0.000199325
0.000194238
0.000189281
0.000184451
0.000179746
0.000175162
0.000170699
0.000166353
0.000162123
0.000158007
0.000154003
0.000150111
0.000146328
0.000142655
0.00013909
0.000135632
0.000132283
0.000129042
0.00012591
0.000122889
0.000119978
0.000117182
0.000114503
0.000111943
0.000109508
0.000107202
0.000105031
0.000103002
0.000101123
9.94034e-05
9.78529e-05
9.64833e-05
9.53072e-05
9.43386e-05
9.35917e-05
9.30812e-05
9.28206e-05
)
;
    }
    Wall
    {
        type            calculated;
        value           nonuniform List<scalar> 
400
(
0.723392
0.709436
0.699198
0.689839
0.680945
0.67248
0.664345
0.656451
0.648735
0.641153
0.633669
0.626259
0.618901
0.611582
0.604288
0.597012
0.589747
0.58249
0.575236
0.567986
0.560737
0.553491
0.546249
0.539011
0.531779
0.524555
0.517341
0.510141
0.502955
0.495786
0.488637
0.481511
0.474409
0.467335
0.460291
0.453279
0.446301
0.439361
0.432459
0.425599
0.418783
0.412012
0.405289
0.398615
0.391993
0.385423
0.378909
0.372451
0.366051
0.35971
0.35343
0.347212
0.341058
0.334967
0.328943
0.322985
0.317094
0.311272
0.305518
0.299835
0.294221
0.288679
0.283208
0.277809
0.272482
0.267227
0.262046
0.256937
0.251901
0.246938
0.242048
0.237231
0.232488
0.227817
0.223218
0.218693
0.214239
0.209857
0.205546
0.201307
0.197138
0.19304
0.189011
0.185052
0.181161
0.177338
0.173583
0.169895
0.166273
0.162716
0.159225
0.155798
0.152434
0.149133
0.145895
0.142717
0.1396
0.136543
0.133545
0.130605
0.127723
0.124897
0.122128
0.119413
0.116752
0.114145
0.111591
0.109089
0.106637
0.104236
0.101884
0.0995805
0.097325
0.0951165
0.0929543
0.0908375
0.0887653
0.086737
0.0847518
0.0828089
0.0809076
0.0790471
0.0772267
0.0754456
0.0737032
0.0719986
0.0703312
0.0687002
0.0671051
0.065545
0.0640193
0.0625273
0.0610685
0.059642
0.0582473
0.0568837
0.0555507
0.0542475
0.0529736
0.0517284
0.0505113
0.0493218
0.0481592
0.0470229
0.0459125
0.0448274
0.0437671
0.042731
0.0417187
0.0407295
0.0397631
0.0388189
0.0378965
0.0369953
0.036115
0.0352551
0.0344151
0.0335946
0.0327931
0.0320103
0.0312457
0.030499
0.0297696
0.0290574
0.0283618
0.0276825
0.0270191
0.0263713
0.0257387
0.025121
0.0245179
0.0239289
0.0233539
0.0227924
0.0222442
0.0217089
0.0211864
0.0206762
0.0201781
0.0196918
0.019217
0.0187536
0.0183011
0.0178594
0.0174283
0.0170074
0.0165965
0.0161954
0.0158039
0.0154218
0.0150488
0.0146847
0.0143293
0.0139824
0.0136438
0.0133134
0.0129908
0.012676
0.0123688
0.0120689
0.0117762
0.0114905
0.0112118
0.0109397
0.0106741
0.010415
0.0101621
0.00991525
0.00967438
0.00943931
0.0092099
0.00898603
0.00876756
0.00855436
0.0083463
0.00814327
0.00794515
0.0077518
0.00756314
0.00737903
0.00719937
0.00702406
0.00685298
0.00668605
0.00652316
0.00636421
0.00620911
0.00605776
0.00591008
0.00576598
0.00562537
0.00548817
0.0053543
0.00522367
0.00509621
0.00497184
0.00485049
0.00473208
0.00461654
0.00450381
0.00439382
0.0042865
0.00418178
0.0040796
0.00397991
0.00388264
0.00378773
0.00369513
0.00360478
0.00351662
0.00343061
0.00334669
0.00326481
0.00318492
0.00310697
0.00303092
0.00295672
0.00288432
0.00281368
0.00274477
0.00267752
0.00261192
0.00254791
0.00248546
0.00242453
0.00236509
0.00230709
0.0022505
0.00219529
0.00214143
0.00208887
0.0020376
0.00198757
0.00193877
0.00189115
0.00184469
0.00179937
0.00175515
0.001712
0.00166991
0.00162884
0.00158878
0.00154969
0.00151155
0.00147434
0.00143804
0.00140263
0.00136808
0.00133437
0.00130148
0.00126939
0.00123809
0.00120755
0.00117776
0.00114869
0.00112033
0.00109267
0.00106567
0.00103934
0.00101365
0.000988587
0.000964135
0.00094028
0.000917008
0.000894303
0.000872153
0.000850544
0.000829463
0.000808896
0.000788832
0.000769258
0.000750163
0.000731534
0.00071336
0.00069563
0.000678334
0.00066146
0.000645
0.000628941
0.000613276
0.000597994
0.000583085
0.000568542
0.000554354
0.000540514
0.000527012
0.000513841
0.000500993
0.00048846
0.000476233
0.000464306
0.000452672
0.000441323
0.000430252
0.000419453
0.000408919
0.000398643
0.00038862
0.000378843
0.000369306
0.000360003
0.00035093
0.000342079
0.000333446
0.000325026
0.000316813
0.000308803
0.00030099
0.000293369
0.000285937
0.000278689
0.00027162
0.000264726
0.000258002
0.000251446
0.000245052
0.000238817
0.000232738
0.00022681
0.000221031
0.000215396
0.000209903
0.000204548
0.000199329
0.000194242
0.000189285
0.000184455
0.000179749
0.000175166
0.000170702
0.000166356
0.000162126
0.00015801
0.000154006
0.000150113
0.000146331
0.000142657
0.000139092
0.000135635
0.000132285
0.000129045
0.000125913
0.000122891
0.000119981
0.000117184
0.000114505
0.000111945
0.00010951
0.000107204
0.000105033
0.000103004
0.000101125
9.94052e-05
9.78547e-05
9.6485e-05
9.5309e-05
9.43404e-05
9.35935e-05
9.30829e-05
9.28222e-05
)
;
    }
}


// ************************************************************************* //
