/*--------------------------------*- C++ -*----------------------------------*\
  =========                 |
  \\      /  F ield         | OpenFOAM: The Open Source CFD Toolbox
   \\    /   O peration     | Website:  https://openfoam.org
    \\  /    A nd           | Version:  dev
     \\/     M anipulation  |
\*---------------------------------------------------------------------------*/
FoamFile
{
    format      ascii;
    class       volScalarField;
    location    "0.42";
    object      N1;
}
// * * * * * * * * * * * * * * * * * * * * * * * * * * * * * * * * * * * * * //

dimensions      [0 0 0 0 0 0 0];

internalField   nonuniform List<scalar> 
8000
(
2.91627e-10
9.29058e-10
1.6305e-09
2.39297e-09
3.21695e-09
4.10525e-09
5.0606e-09
6.08588e-09
7.18432e-09
8.3594e-09
9.61485e-09
1.09546e-08
1.23825e-08
1.3903e-08
1.55201e-08
1.72381e-08
1.90616e-08
2.09948e-08
2.30424e-08
2.52088e-08
2.74987e-08
2.99168e-08
3.24677e-08
3.51564e-08
3.79877e-08
4.09665e-08
4.40978e-08
4.73868e-08
5.08387e-08
5.44588e-08
5.82523e-08
6.22249e-08
6.63819e-08
7.07291e-08
7.52723e-08
8.00172e-08
8.49698e-08
9.01362e-08
9.55225e-08
1.01135e-07
1.0698e-07
1.13064e-07
1.19394e-07
1.25976e-07
1.32817e-07
1.39924e-07
1.47305e-07
1.54966e-07
1.62914e-07
1.71158e-07
1.79704e-07
1.88561e-07
1.97736e-07
2.07237e-07
2.17072e-07
2.2725e-07
2.37778e-07
2.48666e-07
2.59923e-07
2.71556e-07
2.83575e-07
2.95989e-07
3.08807e-07
3.22039e-07
3.35694e-07
3.49782e-07
3.64314e-07
3.79298e-07
3.94745e-07
4.10666e-07
4.27072e-07
4.43972e-07
4.61378e-07
4.79301e-07
4.97752e-07
5.16743e-07
5.36284e-07
5.56389e-07
5.77068e-07
5.98335e-07
6.202e-07
6.42677e-07
6.65778e-07
6.89517e-07
7.13905e-07
7.38956e-07
7.64684e-07
7.91102e-07
8.18223e-07
8.46062e-07
8.74632e-07
9.03947e-07
9.34023e-07
9.64873e-07
9.96511e-07
1.02895e-06
1.06221e-06
1.09631e-06
1.13125e-06
1.16706e-06
1.20375e-06
1.24133e-06
1.27983e-06
1.31925e-06
1.35962e-06
1.40094e-06
1.44325e-06
1.48654e-06
1.53084e-06
1.57617e-06
1.62254e-06
1.66997e-06
1.71847e-06
1.76807e-06
1.81878e-06
1.87061e-06
1.92359e-06
1.97773e-06
2.03304e-06
2.08955e-06
2.14728e-06
2.20623e-06
2.26643e-06
2.32789e-06
2.39064e-06
2.45468e-06
2.52004e-06
2.58673e-06
2.65477e-06
2.72418e-06
2.79497e-06
2.86716e-06
2.94076e-06
3.0158e-06
3.09228e-06
3.17023e-06
3.24967e-06
3.3306e-06
3.41304e-06
3.497e-06
3.58252e-06
3.66958e-06
3.75823e-06
3.84845e-06
3.94028e-06
4.03372e-06
4.12879e-06
4.22551e-06
4.32387e-06
4.4239e-06
4.52561e-06
4.62901e-06
4.73411e-06
4.84092e-06
4.94945e-06
5.05972e-06
5.17172e-06
5.28548e-06
5.40099e-06
5.51827e-06
5.63732e-06
5.75815e-06
5.88077e-06
6.00517e-06
6.13138e-06
6.25938e-06
6.38919e-06
6.5208e-06
6.65422e-06
6.78945e-06
6.9265e-06
7.06535e-06
7.20601e-06
7.34848e-06
7.49275e-06
7.63883e-06
7.7867e-06
7.93636e-06
8.08782e-06
8.24105e-06
8.39606e-06
8.55283e-06
8.71136e-06
8.87163e-06
9.03363e-06
9.19736e-06
9.36279e-06
9.52992e-06
9.69872e-06
9.86919e-06
1.00413e-05
1.0215e-05
1.03904e-05
1.05673e-05
1.07458e-05
1.09259e-05
1.11074e-05
1.12905e-05
1.1475e-05
1.1661e-05
1.18484e-05
1.20372e-05
1.22273e-05
1.24188e-05
1.26116e-05
1.28056e-05
1.30008e-05
1.31973e-05
1.33949e-05
1.35936e-05
1.37934e-05
1.39942e-05
1.41961e-05
1.43989e-05
1.46026e-05
1.48072e-05
1.50126e-05
1.52188e-05
1.54257e-05
1.56333e-05
1.58416e-05
1.60504e-05
1.62598e-05
1.64697e-05
1.668e-05
1.68907e-05
1.71017e-05
1.7313e-05
1.75245e-05
1.77361e-05
1.79479e-05
1.81597e-05
1.83715e-05
1.85832e-05
1.87948e-05
1.90061e-05
1.92173e-05
1.94281e-05
1.96385e-05
1.98485e-05
2.00579e-05
2.02668e-05
2.04751e-05
2.06826e-05
2.08894e-05
2.10953e-05
2.13004e-05
2.15044e-05
2.17075e-05
2.19094e-05
2.21102e-05
2.23097e-05
2.25079e-05
2.27047e-05
2.29001e-05
2.3094e-05
2.32864e-05
2.3477e-05
2.3666e-05
2.38532e-05
2.40386e-05
2.4222e-05
2.44035e-05
2.45829e-05
2.47602e-05
2.49354e-05
2.51083e-05
2.52789e-05
2.54472e-05
2.5613e-05
2.57764e-05
2.59372e-05
2.60953e-05
2.62509e-05
2.64036e-05
2.65536e-05
2.67008e-05
2.6845e-05
2.69863e-05
2.71246e-05
2.72598e-05
2.73919e-05
2.75208e-05
2.76465e-05
2.77689e-05
2.78881e-05
2.80038e-05
2.81161e-05
2.8225e-05
2.83304e-05
2.84322e-05
2.85305e-05
2.86251e-05
2.87161e-05
2.88034e-05
2.88869e-05
2.89667e-05
2.90427e-05
2.91149e-05
2.91833e-05
2.92477e-05
2.93083e-05
2.93649e-05
2.94176e-05
2.94663e-05
2.9511e-05
2.95517e-05
2.95885e-05
2.96211e-05
2.96498e-05
2.96743e-05
2.96948e-05
2.97113e-05
2.97237e-05
2.9732e-05
2.97362e-05
2.97363e-05
2.97325e-05
2.97245e-05
2.97124e-05
2.96963e-05
2.96761e-05
2.96519e-05
2.96236e-05
2.95914e-05
2.95551e-05
2.95149e-05
2.94707e-05
2.94226e-05
2.93705e-05
2.93146e-05
2.92548e-05
2.91912e-05
2.91238e-05
2.90526e-05
2.89776e-05
2.8899e-05
2.88167e-05
2.87308e-05
2.86413e-05
2.85483e-05
2.84517e-05
2.83517e-05
2.82483e-05
2.81415e-05
2.80315e-05
2.79182e-05
2.78017e-05
2.7682e-05
2.75593e-05
2.74335e-05
2.73048e-05
2.71732e-05
2.70388e-05
2.69017e-05
2.67619e-05
2.66195e-05
2.64746e-05
2.63272e-05
2.61775e-05
2.60256e-05
2.58715e-05
2.57153e-05
2.55573e-05
2.53973e-05
2.52357e-05
2.50725e-05
2.49079e-05
2.47419e-05
2.45748e-05
2.44067e-05
2.42377e-05
2.40681e-05
2.38981e-05
2.37278e-05
2.35575e-05
2.33875e-05
2.32179e-05
2.30492e-05
2.28815e-05
2.27153e-05
2.25509e-05
2.23888e-05
2.22292e-05
2.20728e-05
2.192e-05
2.17714e-05
2.16276e-05
2.14893e-05
2.13571e-05
2.1232e-05
2.11147e-05
2.10062e-05
2.09074e-05
2.08194e-05
2.07433e-05
2.06803e-05
2.06314e-05
2.0598e-05
2.05808e-05
2.85684e-10
9.15821e-10
1.61135e-09
2.37123e-09
3.19535e-09
4.08556e-09
5.04427e-09
6.07423e-09
7.17862e-09
8.36095e-09
9.62497e-09
1.09746e-08
1.24141e-08
1.39475e-08
1.55793e-08
1.73138e-08
1.91556e-08
2.11092e-08
2.31793e-08
2.53705e-08
2.76876e-08
3.01353e-08
3.27187e-08
3.54425e-08
3.8312e-08
4.13321e-08
4.4508e-08
4.78451e-08
5.13488e-08
5.50244e-08
5.88775e-08
6.29138e-08
6.7139e-08
7.15589e-08
7.61796e-08
8.1007e-08
8.60474e-08
9.13069e-08
9.6792e-08
1.02509e-07
1.08465e-07
1.14666e-07
1.2112e-07
1.27832e-07
1.34811e-07
1.42063e-07
1.49596e-07
1.57417e-07
1.65534e-07
1.73954e-07
1.82685e-07
1.91736e-07
2.01114e-07
2.10828e-07
2.20886e-07
2.31296e-07
2.42068e-07
2.53209e-07
2.6473e-07
2.76639e-07
2.88945e-07
3.01658e-07
3.14788e-07
3.28344e-07
3.42336e-07
3.56774e-07
3.71668e-07
3.8703e-07
4.02869e-07
4.19196e-07
4.36022e-07
4.53359e-07
4.71217e-07
4.89608e-07
5.08543e-07
5.28035e-07
5.48095e-07
5.68736e-07
5.89969e-07
6.11807e-07
6.34264e-07
6.57351e-07
6.81082e-07
7.05469e-07
7.30528e-07
7.5627e-07
7.8271e-07
8.09862e-07
8.37739e-07
8.66356e-07
8.95728e-07
9.25869e-07
9.56794e-07
9.88517e-07
1.02105e-06
1.05442e-06
1.08863e-06
1.1237e-06
1.15965e-06
1.19649e-06
1.23423e-06
1.27291e-06
1.31252e-06
1.35308e-06
1.39462e-06
1.43715e-06
1.48069e-06
1.52525e-06
1.57086e-06
1.61752e-06
1.66525e-06
1.71408e-06
1.76401e-06
1.81508e-06
1.86729e-06
1.92066e-06
1.97521e-06
2.03096e-06
2.08792e-06
2.14612e-06
2.20557e-06
2.26629e-06
2.32829e-06
2.3916e-06
2.45623e-06
2.5222e-06
2.58952e-06
2.65822e-06
2.72831e-06
2.79982e-06
2.87275e-06
2.94712e-06
3.02295e-06
3.10027e-06
3.17908e-06
3.25939e-06
3.34124e-06
3.42463e-06
3.50959e-06
3.59611e-06
3.68424e-06
3.77396e-06
3.86531e-06
3.9583e-06
4.05294e-06
4.14925e-06
4.24723e-06
4.34691e-06
4.4483e-06
4.5514e-06
4.65624e-06
4.76282e-06
4.87115e-06
4.98126e-06
5.09314e-06
5.2068e-06
5.32227e-06
5.43954e-06
5.55862e-06
5.67953e-06
5.80227e-06
5.92684e-06
6.05326e-06
6.18152e-06
6.31164e-06
6.44362e-06
6.57746e-06
6.71317e-06
6.85074e-06
6.99018e-06
7.13149e-06
7.27467e-06
7.41972e-06
7.56663e-06
7.71541e-06
7.86605e-06
8.01855e-06
8.17289e-06
8.32909e-06
8.48712e-06
8.64698e-06
8.80867e-06
8.97216e-06
9.13746e-06
9.30456e-06
9.47343e-06
9.64406e-06
9.81644e-06
9.99056e-06
1.01664e-05
1.03439e-05
1.05232e-05
1.0704e-05
1.08866e-05
1.10707e-05
1.12564e-05
1.14437e-05
1.16326e-05
1.1823e-05
1.20148e-05
1.22082e-05
1.24029e-05
1.25991e-05
1.27967e-05
1.29956e-05
1.31957e-05
1.33972e-05
1.35999e-05
1.38038e-05
1.40088e-05
1.4215e-05
1.44223e-05
1.46305e-05
1.48398e-05
1.505e-05
1.52612e-05
1.54732e-05
1.5686e-05
1.58995e-05
1.61138e-05
1.63287e-05
1.65443e-05
1.67604e-05
1.6977e-05
1.71941e-05
1.74116e-05
1.76294e-05
1.78475e-05
1.80658e-05
1.82843e-05
1.85029e-05
1.87215e-05
1.89402e-05
1.91588e-05
1.93772e-05
1.95954e-05
1.98134e-05
2.00311e-05
2.02483e-05
2.04651e-05
2.06814e-05
2.08971e-05
2.11122e-05
2.13265e-05
2.154e-05
2.17527e-05
2.19645e-05
2.21752e-05
2.23849e-05
2.25935e-05
2.28008e-05
2.30069e-05
2.32117e-05
2.3415e-05
2.36169e-05
2.38172e-05
2.40159e-05
2.42129e-05
2.44081e-05
2.46015e-05
2.4793e-05
2.49826e-05
2.51701e-05
2.53555e-05
2.55388e-05
2.57198e-05
2.58985e-05
2.60748e-05
2.62488e-05
2.64202e-05
2.6589e-05
2.67553e-05
2.69188e-05
2.70796e-05
2.72375e-05
2.73926e-05
2.75448e-05
2.7694e-05
2.78401e-05
2.79831e-05
2.8123e-05
2.82597e-05
2.8393e-05
2.85231e-05
2.86498e-05
2.8773e-05
2.88928e-05
2.90091e-05
2.91218e-05
2.92309e-05
2.93364e-05
2.94381e-05
2.95362e-05
2.96304e-05
2.97209e-05
2.98075e-05
2.98902e-05
2.9969e-05
3.00439e-05
3.01148e-05
3.01817e-05
3.02446e-05
3.03034e-05
3.03581e-05
3.04088e-05
3.04553e-05
3.04977e-05
3.0536e-05
3.05701e-05
3.06e-05
3.06258e-05
3.06473e-05
3.06647e-05
3.06778e-05
3.06868e-05
3.06915e-05
3.06921e-05
3.06885e-05
3.06806e-05
3.06685e-05
3.06522e-05
3.06318e-05
3.06072e-05
3.05784e-05
3.05454e-05
3.05084e-05
3.04672e-05
3.0422e-05
3.03727e-05
3.03193e-05
3.02619e-05
3.02006e-05
3.01353e-05
3.0066e-05
2.99929e-05
2.99159e-05
2.98351e-05
2.97505e-05
2.96622e-05
2.95701e-05
2.94744e-05
2.93751e-05
2.92722e-05
2.91657e-05
2.90559e-05
2.89426e-05
2.88259e-05
2.87059e-05
2.85827e-05
2.84563e-05
2.83268e-05
2.81942e-05
2.80587e-05
2.79202e-05
2.77789e-05
2.76348e-05
2.74881e-05
2.73387e-05
2.71869e-05
2.70326e-05
2.6876e-05
2.67171e-05
2.65561e-05
2.63931e-05
2.62283e-05
2.60616e-05
2.58933e-05
2.57235e-05
2.55523e-05
2.53799e-05
2.52064e-05
2.50321e-05
2.48571e-05
2.46817e-05
2.45059e-05
2.43302e-05
2.41546e-05
2.39796e-05
2.38054e-05
2.36322e-05
2.34605e-05
2.32907e-05
2.31231e-05
2.29581e-05
2.27964e-05
2.26384e-05
2.24846e-05
2.23357e-05
2.21925e-05
2.20555e-05
2.19258e-05
2.1804e-05
2.16913e-05
2.15885e-05
2.14968e-05
2.14174e-05
2.13514e-05
2.13002e-05
2.12649e-05
2.12467e-05
2.80338e-10
8.99364e-10
1.582e-09
2.33021e-09
3.14505e-09
4.02805e-09
4.98128e-09
6.00732e-09
7.10919e-09
8.2903e-09
9.55438e-09
1.09054e-08
1.23474e-08
1.38848e-08
1.55218e-08
1.72631e-08
1.91132e-08
2.10766e-08
2.31581e-08
2.53626e-08
2.76948e-08
3.01596e-08
3.27621e-08
3.55074e-08
3.84005e-08
4.14467e-08
4.46514e-08
4.802e-08
5.1558e-08
5.5271e-08
5.91646e-08
6.32448e-08
6.75174e-08
7.19885e-08
7.66641e-08
8.15506e-08
8.66541e-08
9.19813e-08
9.75386e-08
1.03333e-07
1.09371e-07
1.15659e-07
1.22205e-07
1.29015e-07
1.36098e-07
1.4346e-07
1.51109e-07
1.59053e-07
1.67299e-07
1.75855e-07
1.8473e-07
1.93932e-07
2.03469e-07
2.13349e-07
2.23581e-07
2.34174e-07
2.45137e-07
2.56479e-07
2.68209e-07
2.80337e-07
2.92872e-07
3.05823e-07
3.19202e-07
3.33017e-07
3.47279e-07
3.61998e-07
3.77186e-07
3.92852e-07
4.09007e-07
4.25663e-07
4.4283e-07
4.60521e-07
4.78746e-07
4.97518e-07
5.16848e-07
5.36749e-07
5.57233e-07
5.78311e-07
5.99998e-07
6.22306e-07
6.45247e-07
6.68836e-07
6.93085e-07
7.18008e-07
7.43618e-07
7.69931e-07
7.96959e-07
8.24717e-07
8.5322e-07
8.82482e-07
9.12519e-07
9.43344e-07
9.74974e-07
1.00742e-06
1.04071e-06
1.07484e-06
1.10984e-06
1.14573e-06
1.18251e-06
1.22021e-06
1.25884e-06
1.29842e-06
1.33896e-06
1.38049e-06
1.42301e-06
1.46655e-06
1.51113e-06
1.55675e-06
1.60344e-06
1.65122e-06
1.7001e-06
1.75011e-06
1.80125e-06
1.85355e-06
1.90702e-06
1.96169e-06
2.01757e-06
2.07468e-06
2.13303e-06
2.19266e-06
2.25356e-06
2.31577e-06
2.3793e-06
2.44417e-06
2.51039e-06
2.57799e-06
2.64699e-06
2.71739e-06
2.78923e-06
2.86251e-06
2.93726e-06
3.01349e-06
3.09122e-06
3.17047e-06
3.25125e-06
3.33358e-06
3.41749e-06
3.50298e-06
3.59008e-06
3.67879e-06
3.76914e-06
3.86113e-06
3.9548e-06
4.05015e-06
4.14719e-06
4.24595e-06
4.34643e-06
4.44865e-06
4.55262e-06
4.65836e-06
4.76588e-06
4.87519e-06
4.98631e-06
5.09923e-06
5.21399e-06
5.33058e-06
5.44902e-06
5.56932e-06
5.69148e-06
5.81551e-06
5.94142e-06
6.06922e-06
6.19892e-06
6.33052e-06
6.46402e-06
6.59943e-06
6.73676e-06
6.87601e-06
7.01717e-06
7.16025e-06
7.30526e-06
7.45219e-06
7.60104e-06
7.75181e-06
7.9045e-06
8.0591e-06
8.21561e-06
8.37402e-06
8.53434e-06
8.69654e-06
8.86063e-06
9.0266e-06
9.19443e-06
9.36412e-06
9.53564e-06
9.709e-06
9.88418e-06
1.00612e-05
1.02399e-05
1.04204e-05
1.06027e-05
1.07867e-05
1.09725e-05
1.11599e-05
1.1349e-05
1.15397e-05
1.1732e-05
1.1926e-05
1.21215e-05
1.23185e-05
1.25171e-05
1.27171e-05
1.29186e-05
1.31215e-05
1.33258e-05
1.35315e-05
1.37384e-05
1.39466e-05
1.41561e-05
1.43667e-05
1.45785e-05
1.47914e-05
1.50054e-05
1.52205e-05
1.54365e-05
1.56534e-05
1.58712e-05
1.60899e-05
1.63093e-05
1.65295e-05
1.67504e-05
1.6972e-05
1.71941e-05
1.74167e-05
1.76398e-05
1.78633e-05
1.80872e-05
1.83114e-05
1.85359e-05
1.87605e-05
1.89852e-05
1.921e-05
1.94348e-05
1.96595e-05
1.98841e-05
2.01086e-05
2.03327e-05
2.05565e-05
2.078e-05
2.10029e-05
2.12254e-05
2.14472e-05
2.16684e-05
2.18889e-05
2.21086e-05
2.23273e-05
2.25452e-05
2.2762e-05
2.29778e-05
2.31924e-05
2.34057e-05
2.36178e-05
2.38285e-05
2.40378e-05
2.42455e-05
2.44517e-05
2.46562e-05
2.4859e-05
2.506e-05
2.52591e-05
2.54563e-05
2.56514e-05
2.58445e-05
2.60355e-05
2.62242e-05
2.64106e-05
2.65947e-05
2.67764e-05
2.69555e-05
2.71321e-05
2.73061e-05
2.74774e-05
2.76459e-05
2.78117e-05
2.79745e-05
2.81344e-05
2.82912e-05
2.84451e-05
2.85957e-05
2.87433e-05
2.88875e-05
2.90285e-05
2.91661e-05
2.93003e-05
2.9431e-05
2.95583e-05
2.9682e-05
2.9802e-05
2.99184e-05
3.00311e-05
3.01401e-05
3.02453e-05
3.03466e-05
3.04441e-05
3.05376e-05
3.06272e-05
3.07129e-05
3.07945e-05
3.0872e-05
3.09455e-05
3.10149e-05
3.10801e-05
3.11412e-05
3.11981e-05
3.12508e-05
3.12993e-05
3.13435e-05
3.13834e-05
3.14191e-05
3.14505e-05
3.14776e-05
3.15004e-05
3.15189e-05
3.1533e-05
3.15428e-05
3.15483e-05
3.15495e-05
3.15464e-05
3.1539e-05
3.15272e-05
3.15111e-05
3.14907e-05
3.1466e-05
3.1437e-05
3.14038e-05
3.13663e-05
3.13246e-05
3.12787e-05
3.12286e-05
3.11744e-05
3.1116e-05
3.10535e-05
3.0987e-05
3.09164e-05
3.08418e-05
3.07632e-05
3.06807e-05
3.05943e-05
3.0504e-05
3.041e-05
3.03121e-05
3.02105e-05
3.01053e-05
2.99964e-05
2.9884e-05
2.9768e-05
2.96486e-05
2.95258e-05
2.93996e-05
2.92701e-05
2.91375e-05
2.90016e-05
2.88627e-05
2.87208e-05
2.8576e-05
2.84283e-05
2.82778e-05
2.81247e-05
2.79689e-05
2.78107e-05
2.765e-05
2.74871e-05
2.73219e-05
2.71546e-05
2.69854e-05
2.68144e-05
2.66416e-05
2.64672e-05
2.62915e-05
2.61144e-05
2.59363e-05
2.57572e-05
2.55774e-05
2.53971e-05
2.52165e-05
2.50358e-05
2.48554e-05
2.46753e-05
2.44961e-05
2.43179e-05
2.41412e-05
2.39664e-05
2.37937e-05
2.36238e-05
2.3457e-05
2.3294e-05
2.31353e-05
2.29816e-05
2.28335e-05
2.26918e-05
2.25574e-05
2.24311e-05
2.23139e-05
2.2207e-05
2.21113e-05
2.20282e-05
2.1959e-05
2.19049e-05
2.18675e-05
2.18481e-05
2.75022e-10
8.82125e-10
1.55058e-09
2.28382e-09
3.08428e-09
3.95405e-09
4.8954e-09
5.91093e-09
7.00364e-09
8.1769e-09
9.43437e-09
1.078e-08
1.22178e-08
1.37522e-08
1.53875e-08
1.71282e-08
1.89789e-08
2.09442e-08
2.3029e-08
2.52381e-08
2.75763e-08
3.00487e-08
3.26604e-08
3.54165e-08
3.83222e-08
4.1383e-08
4.46042e-08
4.79914e-08
5.15502e-08
5.52864e-08
5.92058e-08
6.33143e-08
6.76181e-08
7.21231e-08
7.68358e-08
8.17624e-08
8.69096e-08
9.22839e-08
9.78919e-08
1.03741e-07
1.09837e-07
1.16188e-07
1.22801e-07
1.29683e-07
1.36842e-07
1.44286e-07
1.52021e-07
1.60056e-07
1.684e-07
1.77059e-07
1.86042e-07
1.95358e-07
2.05016e-07
2.15023e-07
2.2539e-07
2.36124e-07
2.47235e-07
2.58732e-07
2.70625e-07
2.82923e-07
2.95637e-07
3.08775e-07
3.22349e-07
3.36368e-07
3.50844e-07
3.65785e-07
3.81204e-07
3.97112e-07
4.13518e-07
4.30436e-07
4.47876e-07
4.65849e-07
4.84368e-07
5.03446e-07
5.23093e-07
5.43322e-07
5.64146e-07
5.85579e-07
6.07631e-07
6.30318e-07
6.53652e-07
6.77646e-07
7.02315e-07
7.27672e-07
7.53732e-07
7.80507e-07
8.08014e-07
8.36267e-07
8.6528e-07
8.95069e-07
9.25648e-07
9.57033e-07
9.8924e-07
1.02228e-06
1.05618e-06
1.09095e-06
1.1266e-06
1.16315e-06
1.20062e-06
1.23903e-06
1.27839e-06
1.31871e-06
1.36002e-06
1.40234e-06
1.44568e-06
1.49005e-06
1.53548e-06
1.58199e-06
1.62958e-06
1.67829e-06
1.72812e-06
1.7791e-06
1.83124e-06
1.88456e-06
1.93909e-06
1.99483e-06
2.05182e-06
2.11005e-06
2.16957e-06
2.23038e-06
2.2925e-06
2.35595e-06
2.42075e-06
2.48692e-06
2.55448e-06
2.62344e-06
2.69383e-06
2.76566e-06
2.83895e-06
2.91373e-06
2.99e-06
3.06778e-06
3.1471e-06
3.22797e-06
3.31042e-06
3.39445e-06
3.48008e-06
3.56734e-06
3.65623e-06
3.74678e-06
3.839e-06
3.93291e-06
4.02853e-06
4.12586e-06
4.22494e-06
4.32576e-06
4.42834e-06
4.53271e-06
4.63887e-06
4.74684e-06
4.85663e-06
4.96825e-06
5.08171e-06
5.19704e-06
5.31423e-06
5.4333e-06
5.55426e-06
5.67712e-06
5.80189e-06
5.92858e-06
6.05719e-06
6.18774e-06
6.32022e-06
6.45465e-06
6.59103e-06
6.72937e-06
6.86967e-06
7.01193e-06
7.15616e-06
7.30235e-06
7.45051e-06
7.60064e-06
7.75274e-06
7.90681e-06
8.06284e-06
8.22083e-06
8.38078e-06
8.54268e-06
8.70652e-06
8.87231e-06
9.04002e-06
9.20966e-06
9.38121e-06
9.55467e-06
9.73001e-06
9.90723e-06
1.00863e-05
1.02672e-05
1.045e-05
1.06346e-05
1.08209e-05
1.10091e-05
1.1199e-05
1.13906e-05
1.1584e-05
1.1779e-05
1.19757e-05
1.21741e-05
1.2374e-05
1.25756e-05
1.27787e-05
1.29833e-05
1.31894e-05
1.33969e-05
1.36059e-05
1.38162e-05
1.4028e-05
1.4241e-05
1.44553e-05
1.46708e-05
1.48875e-05
1.51054e-05
1.53243e-05
1.55444e-05
1.57654e-05
1.59874e-05
1.62104e-05
1.64342e-05
1.66588e-05
1.68842e-05
1.71103e-05
1.7337e-05
1.75644e-05
1.77923e-05
1.80207e-05
1.82496e-05
1.84788e-05
1.87084e-05
1.89382e-05
1.91682e-05
1.93983e-05
1.96285e-05
1.98588e-05
2.00889e-05
2.0319e-05
2.05488e-05
2.07785e-05
2.10077e-05
2.12366e-05
2.14651e-05
2.1693e-05
2.19203e-05
2.2147e-05
2.23729e-05
2.2598e-05
2.28222e-05
2.30455e-05
2.32677e-05
2.34889e-05
2.37088e-05
2.39276e-05
2.4145e-05
2.4361e-05
2.45756e-05
2.47886e-05
2.50001e-05
2.52098e-05
2.54178e-05
2.5624e-05
2.58282e-05
2.60305e-05
2.62307e-05
2.64289e-05
2.66248e-05
2.68185e-05
2.70098e-05
2.71988e-05
2.73852e-05
2.75692e-05
2.77505e-05
2.79291e-05
2.8105e-05
2.82781e-05
2.84483e-05
2.86156e-05
2.87799e-05
2.89411e-05
2.90992e-05
2.9254e-05
2.94057e-05
2.9554e-05
2.9699e-05
2.98405e-05
2.99785e-05
3.01131e-05
3.0244e-05
3.03713e-05
3.04949e-05
3.06148e-05
3.07309e-05
3.08431e-05
3.09515e-05
3.1056e-05
3.11565e-05
3.1253e-05
3.13455e-05
3.14339e-05
3.15182e-05
3.15983e-05
3.16743e-05
3.17461e-05
3.18136e-05
3.18769e-05
3.1936e-05
3.19907e-05
3.20411e-05
3.20871e-05
3.21288e-05
3.21661e-05
3.2199e-05
3.22275e-05
3.22516e-05
3.22713e-05
3.22866e-05
3.22974e-05
3.23038e-05
3.23058e-05
3.23035e-05
3.22966e-05
3.22853e-05
3.22696e-05
3.22495e-05
3.2225e-05
3.21961e-05
3.21628e-05
3.21252e-05
3.20832e-05
3.2037e-05
3.19864e-05
3.19316e-05
3.18726e-05
3.18094e-05
3.1742e-05
3.16704e-05
3.15947e-05
3.1515e-05
3.14312e-05
3.13434e-05
3.12517e-05
3.1156e-05
3.10565e-05
3.09531e-05
3.0846e-05
3.07352e-05
3.06207e-05
3.05026e-05
3.03809e-05
3.02557e-05
3.01271e-05
2.99951e-05
2.98598e-05
2.97213e-05
2.95796e-05
2.94348e-05
2.92871e-05
2.91363e-05
2.89827e-05
2.88264e-05
2.86674e-05
2.85058e-05
2.83417e-05
2.81752e-05
2.80065e-05
2.78356e-05
2.76626e-05
2.74878e-05
2.73112e-05
2.71329e-05
2.69532e-05
2.67721e-05
2.65899e-05
2.64067e-05
2.62227e-05
2.60382e-05
2.58532e-05
2.56682e-05
2.54834e-05
2.52989e-05
2.51152e-05
2.49326e-05
2.47514e-05
2.45719e-05
2.43948e-05
2.42202e-05
2.40489e-05
2.38813e-05
2.3718e-05
2.35597e-05
2.3407e-05
2.32608e-05
2.31219e-05
2.29912e-05
2.28698e-05
2.27586e-05
2.2659e-05
2.25721e-05
2.24994e-05
2.24424e-05
2.24027e-05
2.2382e-05
2.70003e-10
8.65767e-10
1.52082e-09
2.23893e-09
3.02349e-09
3.87737e-09
4.80338e-09
5.80445e-09
6.88376e-09
8.04475e-09
9.29112e-09
1.06268e-08
1.20558e-08
1.35824e-08
1.52111e-08
1.69461e-08
1.87923e-08
2.07541e-08
2.28364e-08
2.50441e-08
2.73821e-08
2.98553e-08
3.24691e-08
3.52285e-08
3.8139e-08
4.12059e-08
4.44348e-08
4.78312e-08
5.1401e-08
5.51499e-08
5.90839e-08
6.32091e-08
6.75316e-08
7.20577e-08
7.67938e-08
8.17463e-08
8.69219e-08
9.23275e-08
9.79697e-08
1.03856e-07
1.09992e-07
1.16387e-07
1.23047e-07
1.2998e-07
1.37193e-07
1.44695e-07
1.52493e-07
1.60594e-07
1.69009e-07
1.77743e-07
1.86807e-07
1.96208e-07
2.05956e-07
2.16058e-07
2.26525e-07
2.37365e-07
2.48588e-07
2.60204e-07
2.72221e-07
2.84649e-07
2.975e-07
3.10782e-07
3.24506e-07
3.38683e-07
3.53323e-07
3.68437e-07
3.84036e-07
4.00132e-07
4.16735e-07
4.33857e-07
4.5151e-07
4.69705e-07
4.88455e-07
5.07773e-07
5.27669e-07
5.48158e-07
5.69252e-07
5.90964e-07
6.13307e-07
6.36294e-07
6.5994e-07
6.84257e-07
7.0926e-07
7.34963e-07
7.61381e-07
7.88527e-07
8.16417e-07
8.45065e-07
8.74487e-07
9.04698e-07
9.35713e-07
9.67548e-07
1.00022e-06
1.03374e-06
1.06813e-06
1.10341e-06
1.13958e-06
1.17667e-06
1.2147e-06
1.25368e-06
1.29362e-06
1.33456e-06
1.37649e-06
1.41945e-06
1.46344e-06
1.5085e-06
1.55462e-06
1.60184e-06
1.65017e-06
1.69963e-06
1.75024e-06
1.80201e-06
1.85496e-06
1.90913e-06
1.96451e-06
2.02113e-06
2.07902e-06
2.13818e-06
2.19864e-06
2.26042e-06
2.32354e-06
2.38801e-06
2.45386e-06
2.52109e-06
2.58975e-06
2.65983e-06
2.73136e-06
2.80436e-06
2.87885e-06
2.95485e-06
3.03237e-06
3.11144e-06
3.19207e-06
3.27428e-06
3.35809e-06
3.44351e-06
3.53057e-06
3.61929e-06
3.70967e-06
3.80174e-06
3.89551e-06
3.991e-06
4.08823e-06
4.18721e-06
4.28796e-06
4.3905e-06
4.49483e-06
4.60097e-06
4.70895e-06
4.81877e-06
4.93044e-06
5.04398e-06
5.1594e-06
5.27671e-06
5.39593e-06
5.51707e-06
5.64013e-06
5.76513e-06
5.89207e-06
6.02097e-06
6.15184e-06
6.28467e-06
6.41948e-06
6.55628e-06
6.69507e-06
6.83585e-06
6.97863e-06
7.12342e-06
7.27021e-06
7.419e-06
7.56981e-06
7.72263e-06
7.87745e-06
8.03428e-06
8.19312e-06
8.35395e-06
8.51679e-06
8.68162e-06
8.84843e-06
9.01723e-06
9.18799e-06
9.36073e-06
9.53541e-06
9.71203e-06
9.89059e-06
1.00711e-05
1.02534e-05
1.04377e-05
1.06238e-05
1.08118e-05
1.10017e-05
1.11933e-05
1.13868e-05
1.1582e-05
1.1779e-05
1.19776e-05
1.2178e-05
1.23801e-05
1.25838e-05
1.27892e-05
1.29961e-05
1.32046e-05
1.34146e-05
1.36261e-05
1.38391e-05
1.40535e-05
1.42692e-05
1.44863e-05
1.47048e-05
1.49244e-05
1.51454e-05
1.53674e-05
1.55907e-05
1.5815e-05
1.60403e-05
1.62667e-05
1.6494e-05
1.67222e-05
1.69512e-05
1.7181e-05
1.74116e-05
1.76429e-05
1.78747e-05
1.81072e-05
1.83402e-05
1.85736e-05
1.88074e-05
1.90416e-05
1.9276e-05
1.95107e-05
1.97455e-05
1.99804e-05
2.02153e-05
2.04502e-05
2.06849e-05
2.09195e-05
2.11538e-05
2.13879e-05
2.16215e-05
2.18547e-05
2.20873e-05
2.23194e-05
2.25508e-05
2.27814e-05
2.30113e-05
2.32402e-05
2.34682e-05
2.36952e-05
2.3921e-05
2.41457e-05
2.43691e-05
2.45912e-05
2.48119e-05
2.50311e-05
2.52488e-05
2.54648e-05
2.56791e-05
2.58917e-05
2.61024e-05
2.63112e-05
2.65179e-05
2.67226e-05
2.69252e-05
2.71255e-05
2.73236e-05
2.75192e-05
2.77125e-05
2.79032e-05
2.80914e-05
2.82769e-05
2.84596e-05
2.86396e-05
2.88168e-05
2.8991e-05
2.91622e-05
2.93304e-05
2.94955e-05
2.96573e-05
2.9816e-05
2.99713e-05
3.01233e-05
3.02718e-05
3.04168e-05
3.05584e-05
3.06963e-05
3.08306e-05
3.09611e-05
3.10879e-05
3.12109e-05
3.13301e-05
3.14454e-05
3.15567e-05
3.1664e-05
3.17673e-05
3.18665e-05
3.19617e-05
3.20526e-05
3.21394e-05
3.2222e-05
3.23003e-05
3.23743e-05
3.24441e-05
3.25094e-05
3.25705e-05
3.26271e-05
3.26793e-05
3.27271e-05
3.27705e-05
3.28094e-05
3.28438e-05
3.28737e-05
3.28992e-05
3.29201e-05
3.29365e-05
3.29484e-05
3.29557e-05
3.29586e-05
3.2957e-05
3.29509e-05
3.29402e-05
3.2925e-05
3.29053e-05
3.28811e-05
3.28525e-05
3.28193e-05
3.27818e-05
3.27398e-05
3.26934e-05
3.26427e-05
3.25876e-05
3.25281e-05
3.24644e-05
3.23964e-05
3.23242e-05
3.22477e-05
3.21671e-05
3.20824e-05
3.19936e-05
3.19007e-05
3.18039e-05
3.17031e-05
3.15984e-05
3.14898e-05
3.13774e-05
3.12613e-05
3.11414e-05
3.10179e-05
3.08909e-05
3.07603e-05
3.06263e-05
3.04889e-05
3.03482e-05
3.02042e-05
3.00571e-05
2.99069e-05
2.97536e-05
2.95975e-05
2.94385e-05
2.92767e-05
2.91123e-05
2.89454e-05
2.8776e-05
2.86043e-05
2.84303e-05
2.82543e-05
2.80762e-05
2.78963e-05
2.77148e-05
2.75317e-05
2.73472e-05
2.71615e-05
2.69747e-05
2.67872e-05
2.6599e-05
2.64104e-05
2.62216e-05
2.6033e-05
2.58447e-05
2.56571e-05
2.54706e-05
2.52854e-05
2.5102e-05
2.49208e-05
2.47422e-05
2.45668e-05
2.4395e-05
2.42276e-05
2.40651e-05
2.39083e-05
2.3758e-05
2.36149e-05
2.34801e-05
2.33546e-05
2.32395e-05
2.3136e-05
2.30455e-05
2.29695e-05
2.29097e-05
2.28677e-05
2.28457e-05
2.65562e-10
8.51239e-10
1.49438e-09
2.19871e-09
2.96806e-09
3.80599e-09
4.7159e-09
5.70119e-09
6.76538e-09
7.9121e-09
9.14516e-09
1.04685e-08
1.18862e-08
1.34026e-08
1.50218e-08
1.67484e-08
1.8587e-08
2.05421e-08
2.26186e-08
2.48212e-08
2.7155e-08
2.9625e-08
3.22364e-08
3.49944e-08
3.79044e-08
4.09719e-08
4.42024e-08
4.76018e-08
5.11757e-08
5.49301e-08
5.88711e-08
6.30046e-08
6.73372e-08
7.1875e-08
7.66245e-08
8.15925e-08
8.67855e-08
9.22105e-08
9.78744e-08
1.03784e-07
1.09948e-07
1.16371e-07
1.23063e-07
1.3003e-07
1.37281e-07
1.44823e-07
1.52665e-07
1.60813e-07
1.69278e-07
1.78066e-07
1.87187e-07
1.9665e-07
2.06463e-07
2.16635e-07
2.27175e-07
2.38094e-07
2.49399e-07
2.61102e-07
2.73211e-07
2.85737e-07
2.9869e-07
3.1208e-07
3.25917e-07
3.40213e-07
3.54977e-07
3.70222e-07
3.85958e-07
4.02196e-07
4.18949e-07
4.36227e-07
4.54043e-07
4.72408e-07
4.91336e-07
5.10838e-07
5.30927e-07
5.51616e-07
5.72918e-07
5.94846e-07
6.17414e-07
6.40634e-07
6.64522e-07
6.8909e-07
7.14354e-07
7.40327e-07
7.67024e-07
7.94459e-07
8.22648e-07
8.51606e-07
8.81348e-07
9.1189e-07
9.43246e-07
9.75434e-07
1.00847e-06
1.04237e-06
1.07715e-06
1.11282e-06
1.14941e-06
1.18693e-06
1.22539e-06
1.26482e-06
1.30524e-06
1.34665e-06
1.38908e-06
1.43254e-06
1.47706e-06
1.52265e-06
1.56932e-06
1.61711e-06
1.66602e-06
1.71608e-06
1.7673e-06
1.81971e-06
1.87331e-06
1.92814e-06
1.98421e-06
2.04153e-06
2.10014e-06
2.16004e-06
2.22126e-06
2.28381e-06
2.34772e-06
2.41301e-06
2.47969e-06
2.54778e-06
2.61731e-06
2.68829e-06
2.76074e-06
2.83468e-06
2.91013e-06
2.98712e-06
3.06564e-06
3.14574e-06
3.22742e-06
3.31071e-06
3.39562e-06
3.48217e-06
3.57038e-06
3.66026e-06
3.75184e-06
3.84514e-06
3.94016e-06
4.03693e-06
4.13546e-06
4.23577e-06
4.33788e-06
4.44179e-06
4.54754e-06
4.65512e-06
4.76457e-06
4.87588e-06
4.98908e-06
5.10417e-06
5.22118e-06
5.34011e-06
5.46097e-06
5.58378e-06
5.70855e-06
5.83528e-06
5.96399e-06
6.09469e-06
6.22739e-06
6.36209e-06
6.49879e-06
6.63752e-06
6.77826e-06
6.92104e-06
7.06584e-06
7.21269e-06
7.36157e-06
7.51249e-06
7.66546e-06
7.82046e-06
7.97751e-06
8.13661e-06
8.29774e-06
8.4609e-06
8.6261e-06
8.79333e-06
8.96257e-06
9.13384e-06
9.3071e-06
9.48237e-06
9.65962e-06
9.83886e-06
1.00201e-05
1.02032e-05
1.03883e-05
1.05753e-05
1.07642e-05
1.0955e-05
1.11477e-05
1.13422e-05
1.15386e-05
1.17367e-05
1.19367e-05
1.21384e-05
1.23419e-05
1.2547e-05
1.27538e-05
1.29623e-05
1.31724e-05
1.33841e-05
1.35974e-05
1.38122e-05
1.40284e-05
1.42461e-05
1.44653e-05
1.46858e-05
1.49076e-05
1.51308e-05
1.53551e-05
1.55807e-05
1.58075e-05
1.60354e-05
1.62643e-05
1.64942e-05
1.67252e-05
1.6957e-05
1.71898e-05
1.74233e-05
1.76576e-05
1.78926e-05
1.81282e-05
1.83645e-05
1.86013e-05
1.88385e-05
1.90762e-05
1.93142e-05
1.95525e-05
1.97911e-05
2.00298e-05
2.02686e-05
2.05074e-05
2.07462e-05
2.09849e-05
2.12235e-05
2.14618e-05
2.16998e-05
2.19374e-05
2.21745e-05
2.24112e-05
2.26472e-05
2.28826e-05
2.31172e-05
2.33511e-05
2.3584e-05
2.3816e-05
2.4047e-05
2.42768e-05
2.45054e-05
2.47328e-05
2.49589e-05
2.51835e-05
2.54066e-05
2.56282e-05
2.58482e-05
2.60664e-05
2.62828e-05
2.64974e-05
2.671e-05
2.69206e-05
2.71291e-05
2.73354e-05
2.75395e-05
2.77413e-05
2.79406e-05
2.81375e-05
2.83319e-05
2.85237e-05
2.87128e-05
2.88991e-05
2.90826e-05
2.92632e-05
2.94409e-05
2.96155e-05
2.9787e-05
2.99554e-05
3.01206e-05
3.02825e-05
3.0441e-05
3.05961e-05
3.07477e-05
3.08958e-05
3.10404e-05
3.11812e-05
3.13184e-05
3.14518e-05
3.15814e-05
3.17072e-05
3.1829e-05
3.19469e-05
3.20608e-05
3.21707e-05
3.22764e-05
3.2378e-05
3.24755e-05
3.25687e-05
3.26577e-05
3.27424e-05
3.28228e-05
3.28988e-05
3.29705e-05
3.30378e-05
3.31006e-05
3.3159e-05
3.32129e-05
3.32623e-05
3.33072e-05
3.33475e-05
3.33833e-05
3.34146e-05
3.34412e-05
3.34633e-05
3.34808e-05
3.34937e-05
3.3502e-05
3.35057e-05
3.35049e-05
3.34996e-05
3.34895e-05
3.34749e-05
3.34556e-05
3.34319e-05
3.34035e-05
3.33707e-05
3.33333e-05
3.32914e-05
3.3245e-05
3.31942e-05
3.3139e-05
3.30793e-05
3.30153e-05
3.2947e-05
3.28743e-05
3.27973e-05
3.27161e-05
3.26308e-05
3.25412e-05
3.24475e-05
3.23498e-05
3.2248e-05
3.21422e-05
3.20326e-05
3.1919e-05
3.18016e-05
3.16804e-05
3.15555e-05
3.1427e-05
3.12949e-05
3.11593e-05
3.10202e-05
3.08777e-05
3.07319e-05
3.05829e-05
3.04308e-05
3.02755e-05
3.01173e-05
2.99562e-05
2.97922e-05
2.96256e-05
2.94563e-05
2.92845e-05
2.91103e-05
2.89339e-05
2.87552e-05
2.85746e-05
2.83921e-05
2.82078e-05
2.80219e-05
2.78345e-05
2.7646e-05
2.74563e-05
2.72657e-05
2.70745e-05
2.68828e-05
2.6691e-05
2.64991e-05
2.63076e-05
2.61168e-05
2.59269e-05
2.57384e-05
2.55516e-05
2.53669e-05
2.51849e-05
2.50059e-05
2.48306e-05
2.46596e-05
2.44935e-05
2.43331e-05
2.41791e-05
2.40324e-05
2.38939e-05
2.37648e-05
2.36461e-05
2.35391e-05
2.34454e-05
2.33663e-05
2.33038e-05
2.32598e-05
2.32366e-05
2.61841e-10
8.39061e-10
1.47225e-09
2.16493e-09
2.9211e-09
3.74476e-09
4.63984e-09
5.61022e-09
6.65977e-09
7.79241e-09
9.0121e-09
1.03229e-08
1.17289e-08
1.32343e-08
1.48434e-08
1.65607e-08
1.83906e-08
2.03379e-08
2.24071e-08
2.46031e-08
2.69309e-08
2.93956e-08
3.20023e-08
3.47563e-08
3.76631e-08
4.07281e-08
4.39569e-08
4.73554e-08
5.09294e-08
5.46848e-08
5.86278e-08
6.27645e-08
6.71013e-08
7.16446e-08
7.6401e-08
8.13772e-08
8.658e-08
9.20163e-08
9.76931e-08
1.03618e-07
1.09797e-07
1.16239e-07
1.22951e-07
1.29941e-07
1.37217e-07
1.44786e-07
1.52656e-07
1.60837e-07
1.69335e-07
1.78161e-07
1.87322e-07
1.96827e-07
2.06686e-07
2.16907e-07
2.275e-07
2.38474e-07
2.49838e-07
2.61603e-07
2.73779e-07
2.86375e-07
2.99402e-07
3.1287e-07
3.26789e-07
3.41172e-07
3.56028e-07
3.71368e-07