/*--------------------------------*- C++ -*----------------------------------*\
  =========                 |
  \\      /  F ield         | OpenFOAM: The Open Source CFD Toolbox
   \\    /   O peration     | Website:  https://openfoam.org
    \\  /    A nd           | Version:  dev
     \\/     M anipulation  |
\*---------------------------------------------------------------------------*/
FoamFile
{
    format      ascii;
    class       volScalarField;
    location    "0.94";
    object      Exp1;
}
// * * * * * * * * * * * * * * * * * * * * * * * * * * * * * * * * * * * * * //

dimensions      [0 0 0 0 0 0 0];

internalField   uniform 0;

boundaryField
{
    frontAndBack
    {
        type            empty;
    }
    inlet
    {
        type            calculated;
        value           uniform 0;
    }
    outlet
    {
        type            calculated;
        value           uniform 0;
    }
    substrate
    {
        type            calculated;
        value           nonuniform List<scalar> 
400
(
2.71606e-23
8.65077e-23
1.518e-22
2.22764e-22
2.99447e-22
3.82117e-22
4.71033e-22
5.6647e-22
6.68734e-22
7.78157e-22
8.95094e-22
1.01992e-21
1.15301e-21
1.29477e-21
1.44561e-21
1.60595e-21
1.7762e-21
1.9568e-21
2.14819e-21
2.35081e-21
2.56513e-21
2.79159e-21
3.03068e-21
3.28287e-21
3.54865e-21
3.82852e-21
4.12299e-21
4.43257e-21
4.75781e-21
5.09924e-21
5.45743e-21
5.83293e-21
6.22633e-21
6.63823e-21
7.06924e-21
7.51998e-21
7.9911e-21
8.48324e-21
8.99708e-21
9.53331e-21
1.00926e-20
1.06758e-20
1.12835e-20
1.19165e-20
1.25756e-20
1.32616e-20
1.39754e-20
1.47177e-20
1.54894e-20
1.62914e-20
1.71247e-20
1.79901e-20
1.88887e-20
1.98213e-20
2.07891e-20
2.1793e-20
2.28341e-20
2.39136e-20
2.50325e-20
2.61921e-20
2.73934e-20
2.86378e-20
2.99265e-20
3.12607e-20
3.26419e-20
3.40713e-20
3.55505e-20
3.70808e-20
3.86637e-20
4.03007e-20
4.19935e-20
4.37437e-20
4.55529e-20
4.74228e-20
4.93552e-20
5.13519e-20
5.34148e-20
5.55459e-20
5.77469e-20
6.00202e-20
6.23676e-20
6.47913e-20
6.72937e-20
6.98769e-20
7.25433e-20
7.52953e-20
7.81355e-20
8.10663e-20
8.40903e-20
8.72104e-20
9.04293e-20
9.37498e-20
9.7175e-20
1.00708e-19
1.04351e-19
1.08109e-19
1.11984e-19
1.15979e-19
1.20099e-19
1.24347e-19
1.28726e-19
1.3324e-19
1.37894e-19
1.42692e-19
1.47636e-19
1.52733e-19
1.57985e-19
1.63399e-19
1.68978e-19
1.74727e-19
1.80651e-19
1.86756e-19
1.93046e-19
1.99527e-19
2.06204e-19
2.13084e-19
2.20171e-19
2.27473e-19
2.34995e-19
2.42744e-19
2.50725e-19
2.58947e-19
2.67416e-19
2.76139e-19
2.85123e-19
2.94377e-19
3.03907e-19
3.13723e-19
3.23831e-19
3.34242e-19
3.44963e-19
3.56003e-19
3.67371e-19
3.79078e-19
3.91133e-19
4.03546e-19
4.16328e-19
4.29488e-19
4.43039e-19
4.56991e-19
4.71355e-19
4.86144e-19
5.01371e-19
5.17047e-19
5.33186e-19
5.498e-19
5.66905e-19
5.84513e-19
6.02639e-19
6.21299e-19
6.40507e-19
6.60279e-19
6.80632e-19
7.01583e-19
7.23147e-19
7.45344e-19
7.68191e-19
7.91707e-19
8.15911e-19
8.40822e-19
8.66462e-19
8.9285e-19
9.20009e-19
9.4796e-19
9.76726e-19
1.00633e-18
1.0368e-18
1.06815e-18
1.10042e-18
1.13362e-18
1.16779e-18
1.20295e-18
1.23913e-18
1.27636e-18
1.31467e-18
1.35409e-18
1.39465e-18
1.43639e-18
1.47933e-18
1.52351e-18
1.56897e-18
1.61575e-18
1.66387e-18
1.71338e-18
1.76432e-18
1.81673e-18
1.87065e-18
1.92611e-18
1.98318e-18
2.04188e-18
2.10227e-18
2.16439e-18
2.2283e-18
2.29403e-18
2.36166e-18
2.43121e-18
2.50276e-18
2.57636e-18
2.65206e-18
2.72992e-18
2.81001e-18
2.89238e-18
2.9771e-18
3.06423e-18
3.15384e-18
3.24601e-18
3.3408e-18
3.43828e-18
3.53853e-18
3.64162e-18
3.74764e-18
3.85667e-18
3.96878e-18
4.08407e-18
4.20261e-18
4.32451e-18
4.44986e-18
4.57874e-18
4.71126e-18
4.84751e-18
4.9876e-18
5.13163e-18
5.27972e-18
5.43197e-18
5.58849e-18
5.74941e-18
5.91484e-18
6.0849e-18
6.25973e-18
6.43945e-18
6.62419e-18
6.8141e-18
7.0093e-18
7.20995e-18
7.41619e-18
7.62817e-18
7.84605e-18
8.06999e-18
8.30015e-18
8.5367e-18
8.7798e-18
9.02965e-18
9.2864e-18
9.55026e-18
9.82141e-18
1.01e-17
1.03864e-17
1.06806e-17
1.09829e-17
1.12935e-17
1.16127e-17
1.19406e-17
1.22776e-17
1.26237e-17
1.29794e-17
1.33447e-17
1.37201e-17
1.41057e-17
1.45018e-17
1.49088e-17
1.53268e-17
1.57561e-17
1.61971e-17
1.66501e-17
1.71154e-17
1.75933e-17
1.80841e-17
1.85882e-17
1.91058e-17
1.96375e-17
2.01834e-17
2.07441e-17
2.13198e-17
2.19109e-17
2.2518e-17
2.31412e-17
2.37812e-17
2.44382e-17
2.51128e-17
2.58054e-17
2.65164e-17
2.72463e-17
2.79956e-17
2.87648e-17
2.95543e-17
3.03647e-17
3.11966e-17
3.20504e-17
3.29267e-17
3.3826e-17
3.4749e-17
3.56962e-17
3.66682e-17
3.76656e-17
3.86891e-17
3.97393e-17
4.08168e-17
4.19224e-17
4.30566e-17
4.42203e-17
4.54141e-17
4.66387e-17
4.78949e-17
4.91834e-17
5.05051e-17
5.18606e-17
5.32509e-17
5.46767e-17
5.61388e-17
5.76382e-17
5.91757e-17
6.07522e-17
6.23685e-17
6.40256e-17
6.57245e-17
6.7466e-17
6.92512e-17
7.1081e-17
7.29565e-17
7.48786e-17
7.68483e-17
7.88668e-17
8.09351e-17
8.30542e-17
8.52253e-17
8.74494e-17
8.97276e-17
9.20612e-17
9.44511e-17
9.68986e-17
9.94048e-17
1.01971e-16
1.04598e-16
1.07287e-16
1.1004e-16
1.12857e-16
1.1574e-16
1.1869e-16
1.21708e-16
1.24795e-16
1.27952e-16
1.31181e-16
1.34482e-16
1.37857e-16
1.41306e-16
1.44832e-16
1.48433e-16
1.52113e-16
1.55871e-16
1.59708e-16
1.63624e-16
1.67622e-16
1.71701e-16
1.75861e-16
1.80104e-16
1.84429e-16
1.88836e-16
1.93326e-16
1.97897e-16
2.02551e-16
2.07286e-16
2.12101e-16
2.16996e-16
2.21969e-16
2.27018e-16
2.32142e-16
2.37338e-16
2.42604e-16
2.47936e-16
2.53332e-16
2.58786e-16
2.64295e-16
2.69853e-16
2.75455e-16
2.81093e-16
2.86761e-16
2.9245e-16
2.98152e-16
3.03856e-16
3.09551e-16
3.15224e-16
3.20863e-16
3.26452e-16
3.31974e-16
3.37412e-16
3.42746e-16
3.47954e-16
3.53012e-16
3.57894e-16
3.62573e-16
3.67017e-16
3.71194e-16
3.75069e-16
3.78604e-16
3.81758e-16
3.84489e-16
3.86755e-16
3.88511e-16
3.89716e-16
3.90332e-16
)
;
    }
    Wall
    {
        type            calculated;
        value           nonuniform List<scalar> 
400
(
2.71601e-23
8.6506e-23
1.51797e-22
2.22759e-22
2.9944e-22
3.82107e-22
4.71021e-22
5.66454e-22
6.68714e-22
7.78133e-22
8.95065e-22
1.01988e-21
1.15297e-21
1.29473e-21
1.44556e-21
1.60588e-21
1.77613e-21
1.95672e-21
2.1481e-21
2.35072e-21
2.56502e-21
2.79148e-21
3.03055e-21
3.28273e-21
3.5485e-21
3.82836e-21
4.12282e-21
4.43239e-21
4.75762e-21
5.09904e-21
5.45721e-21
5.8327e-21
6.22609e-21
6.63798e-21
7.06897e-21
7.5197e-21
7.9908e-21
8.48293e-21
8.99675e-21
9.53297e-21
1.00923e-20
1.06754e-20
1.12831e-20
1.19161e-20
1.25752e-20
1.32612e-20
1.39749e-20
1.47172e-20
1.54889e-20
1.62909e-20
1.71241e-20
1.79895e-20
1.8888e-20
1.98206e-20
2.07884e-20
2.17923e-20
2.28334e-20
2.39128e-20
2.50317e-20
2.61913e-20
2.73926e-20
2.86369e-20
2.99255e-20
3.12597e-20
3.26409e-20
3.40703e-20
3.55494e-20
3.70796e-20
3.86625e-20
4.02995e-20
4.19923e-20
4.37424e-20
4.55515e-20
4.74214e-20
4.93538e-20
5.13504e-20
5.34133e-20
5.55442e-20
5.77453e-20
6.00184e-20
6.23658e-20
6.47895e-20
6.72918e-20
6.98749e-20
7.25412e-20
7.52932e-20
7.81332e-20
8.1064e-20
8.4088e-20
8.7208e-20
9.04267e-20
9.37472e-20
9.71722e-20
1.00705e-19
1.04348e-19
1.08106e-19
1.11981e-19
1.15976e-19
1.20096e-19
1.24343e-19
1.28722e-19
1.33237e-19
1.3789e-19
1.42687e-19
1.47632e-19
1.52728e-19
1.57981e-19
1.63394e-19
1.68973e-19
1.74722e-19
1.80646e-19
1.86751e-19
1.93041e-19
1.99521e-19
2.06199e-19
2.13078e-19
2.20165e-19
2.27467e-19
2.34988e-19
2.42737e-19
2.50718e-19
2.5894e-19
2.67409e-19
2.76131e-19
2.85116e-19
2.94369e-19
3.03899e-19
3.13714e-19
3.23823e-19
3.34233e-19
3.44953e-19
3.55993e-19
3.67362e-19
3.79068e-19
3.91123e-19
4.03536e-19
4.16317e-19
4.29477e-19
4.43027e-19
4.56978e-19
4.71343e-19
4.86131e-19
5.01358e-19
5.17033e-19
5.33171e-19
5.49786e-19
5.6689e-19
5.84497e-19
6.02623e-19
6.21282e-19
6.4049e-19
6.60262e-19
6.80615e-19
7.01564e-19
7.23128e-19
7.45325e-19
7.68171e-19
7.91686e-19
8.15889e-19
8.408e-19
8.66439e-19
8.92827e-19
9.19985e-19
9.47935e-19
9.767e-19
1.0063e-18
1.03677e-18
1.06812e-18
1.10039e-18
1.13359e-18
1.16776e-18
1.20292e-18
1.2391e-18
1.27633e-18
1.31463e-18
1.35405e-18
1.39461e-18
1.43635e-18
1.47929e-18
1.52347e-18
1.56893e-18
1.61571e-18
1.66383e-18
1.71334e-18
1.76428e-18
1.81668e-18
1.8706e-18
1.92606e-18
1.98312e-18
2.04183e-18
2.10221e-18
2.16433e-18
2.22824e-18
2.29397e-18
2.36159e-18
2.43115e-18
2.5027e-18
2.57629e-18
2.65199e-18
2.72985e-18
2.80993e-18
2.8923e-18
2.97702e-18
3.06415e-18
3.15376e-18
3.24592e-18
3.34071e-18
3.43819e-18
3.53843e-18
3.64153e-18
3.74754e-18
3.85656e-18
3.96868e-18
4.08396e-18
4.2025e-18
4.3244e-18
4.44974e-18
4.57862e-18
4.71113e-18
4.84738e-18
4.98747e-18
5.1315e-18
5.27958e-18
5.43183e-18
5.58835e-18
5.74926e-18
5.91468e-18
6.08474e-18
6.25957e-18
6.43928e-18
6.62402e-18
6.81392e-18
7.00912e-18
7.20976e-18
7.416e-18
7.62797e-18
7.84585e-18
8.06978e-18
8.29994e-18
8.53648e-18
8.77958e-18
9.02941e-18
9.28616e-18
9.55001e-18
9.82116e-18
1.00998e-17
1.03861e-17
1.06803e-17
1.09826e-17
1.12932e-17
1.16124e-17
1.19403e-17
1.22772e-17
1.26234e-17
1.2979e-17
1.33444e-17
1.37198e-17
1.41053e-17
1.45015e-17
1.49084e-17
1.53264e-17
1.57557e-17
1.61967e-17
1.66497e-17
1.7115e-17
1.75928e-17
1.80836e-17
1.85877e-17
1.91053e-17
1.9637e-17
2.01829e-17
2.07435e-17
2.13192e-17
2.19104e-17
2.25174e-17
2.31406e-17
2.37806e-17
2.44376e-17
2.51122e-17
2.58047e-17
2.65157e-17
2.72456e-17
2.79949e-17
2.8764e-17
2.95535e-17
3.03639e-17
3.11958e-17
3.20495e-17
3.29258e-17
3.38251e-17
3.47481e-17
3.56952e-17
3.66672e-17
3.76646e-17
3.86881e-17
3.97382e-17
4.08157e-17
4.19213e-17
4.30555e-17
4.42191e-17
4.54129e-17
4.66375e-17
4.78936e-17
4.91821e-17
5.05037e-17
5.18593e-17
5.32495e-17
5.46753e-17
5.61374e-17
5.76367e-17
5.91742e-17
6.07506e-17
6.23669e-17
6.4024e-17
6.57228e-17
6.74643e-17
6.92494e-17
7.10792e-17
7.29546e-17
7.48767e-17
7.68464e-17
7.88648e-17
8.0933e-17
8.30521e-17
8.52231e-17
8.74472e-17
8.97254e-17
9.20589e-17
9.44487e-17
9.68962e-17
9.94023e-17
1.01968e-16
1.04595e-16
1.07285e-16
1.10037e-16
1.12854e-16
1.15737e-16
1.18687e-16
1.21705e-16
1.24792e-16
1.27949e-16
1.31177e-16
1.34479e-16
1.37854e-16
1.41303e-16
1.44828e-16
1.4843e-16
1.52109e-16
1.55867e-16
1.59704e-16
1.63621e-16
1.67618e-16
1.71697e-16
1.75857e-16
1.80099e-16
1.84424e-16
1.88831e-16
1.93321e-16
1.97893e-16
2.02546e-16
2.07281e-16
2.12096e-16
2.16991e-16
2.21963e-16
2.27012e-16
2.32136e-16
2.37332e-16
2.42598e-16
2.4793e-16
2.53326e-16
2.5878e-16
2.64289e-16
2.69847e-16
2.75448e-16
2.81087e-16
2.86754e-16
2.92444e-16
2.98145e-16
3.03849e-16
3.09544e-16
3.15217e-16
3.20856e-16
3.26445e-16
3.31967e-16
3.37405e-16
3.42739e-16
3.47946e-16
3.53004e-16
3.57887e-16
3.62565e-16
3.6701e-16
3.71187e-16
3.75062e-16
3.78596e-16
3.8175e-16
3.84482e-16
3.86748e-16
3.88505e-16
3.8971e-16
3.90326e-16
)
;
    }
}


// ************************************************************************* //
