/*--------------------------------*- C++ -*----------------------------------*\
  =========                 |
  \\      /  F ield         | OpenFOAM: The Open Source CFD Toolbox
   \\    /   O peration     | Website:  https://openfoam.org
    \\  /    A nd           | Version:  dev
     \\/     M anipulation  |
\*---------------------------------------------------------------------------*/
FoamFile
{
    format      ascii;
    class       volScalarField;
    location    "0.94";
    object      N1;
}
// * * * * * * * * * * * * * * * * * * * * * * * * * * * * * * * * * * * * * //

dimensions      [0 0 0 0 0 0 0];

internalField   nonuniform List<scalar> 
8000
(
2.06216e-22
6.56972e-22
1.15304e-21
1.69235e-21
2.27527e-21
2.90386e-21
3.58009e-21
4.30607e-21
5.08413e-21
5.91684e-21
6.8069e-21
7.75717e-21
8.77059e-21
9.85023e-21
1.09992e-20
1.22207e-20
1.3518e-20
1.48944e-20
1.63533e-20
1.78982e-20
1.95324e-20
2.12596e-20
2.30834e-20
2.50074e-20
2.70355e-20
2.91715e-20
3.14192e-20
3.37828e-20
3.62662e-20
3.88737e-20
4.16096e-20
4.44782e-20
4.74841e-20
5.06318e-20
5.3926e-20
5.73715e-20
6.09733e-20
6.47364e-20
6.86661e-20
7.27675e-20
7.70461e-20
8.15076e-20
8.61576e-20
9.1002e-20
9.60467e-20
1.01298e-19
1.06762e-19
1.12446e-19
1.18355e-19
1.24498e-19
1.3088e-19
1.3751e-19
1.44394e-19
1.5154e-19
1.58956e-19
1.66649e-19
1.74629e-19
1.82904e-19
1.91482e-19
2.00371e-19
2.09583e-19
2.19125e-19
2.29007e-19
2.39241e-19
2.49834e-19
2.60799e-19
2.72147e-19
2.83887e-19
2.96032e-19
3.08594e-19
3.21584e-19
3.35015e-19
3.489e-19
3.63252e-19
3.78085e-19
3.93413e-19
4.09249e-19
4.2561e-19
4.42509e-19
4.59963e-19
4.77988e-19
4.966e-19
5.15816e-19
5.35654e-19
5.56132e-19
5.77269e-19
5.99084e-19
6.21595e-19
6.44825e-19
6.68792e-19
6.9352e-19
7.1903e-19
7.45344e-19
7.72486e-19
8.0048e-19
8.29351e-19
8.59124e-19
8.89826e-19
9.21483e-19
9.54124e-19
9.87776e-19
1.02247e-18
1.05823e-18
1.0951e-18
1.1331e-18
1.17227e-18
1.21264e-18
1.25425e-18
1.29713e-18
1.34132e-18
1.38686e-18
1.43378e-18
1.48213e-18
1.53195e-18
1.58328e-18
1.63616e-18
1.69065e-18
1.74678e-18
1.8046e-18
1.86417e-18
1.92553e-18
1.98874e-18
2.05385e-18
2.12091e-18
2.18998e-18
2.26113e-18
2.3344e-18
2.40986e-18
2.48758e-18
2.56762e-18
2.65005e-18
2.73494e-18
2.82235e-18
2.91236e-18
3.00505e-18
3.10049e-18
3.19877e-18
3.29996e-18
3.40415e-18
3.51143e-18
3.62188e-18
3.7356e-18
3.85268e-18
3.97322e-18
4.09732e-18
4.22508e-18
4.3566e-18
4.492e-18
4.63139e-18
4.77487e-18
4.92258e-18
5.07462e-18
5.23113e-18
5.39224e-18
5.55807e-18
5.72876e-18
5.90445e-18
6.08528e-18
6.27141e-18
6.46298e-18
6.66015e-18
6.86307e-18
7.07193e-18
7.28687e-18
7.50809e-18
7.73575e-18
7.97004e-18
8.21115e-18
8.45927e-18
8.71462e-18
8.97738e-18
9.24777e-18
9.52601e-18
9.81233e-18
1.01069e-17
1.04101e-17
1.0722e-17
1.1043e-17
1.13732e-17
1.1713e-17
1.20626e-17
1.24224e-17
1.27924e-17
1.31732e-17
1.3565e-17
1.3968e-17
1.43826e-17
1.48092e-17
1.5248e-17
1.56995e-17
1.61639e-17
1.66417e-17
1.71331e-17
1.76387e-17
1.81588e-17
1.86937e-17
1.92439e-17
1.98099e-17
2.03921e-17
2.09909e-17
2.16068e-17
2.22403e-17
2.28918e-17
2.3562e-17
2.42512e-17
2.496e-17
2.56889e-17
2.64386e-17
2.72096e-17
2.80025e-17
2.88178e-17
2.96563e-17
3.05185e-17
3.14052e-17
3.23169e-17
3.32544e-17
3.42184e-17
3.52096e-17
3.62287e-17
3.72766e-17
3.8354e-17
3.94617e-17
4.06006e-17
4.17715e-17
4.29753e-17
4.42129e-17
4.54851e-17
4.67931e-17
4.81376e-17
4.95198e-17
5.09406e-17
5.24011e-17
5.39024e-17
5.54455e-17
5.70316e-17
5.8662e-17
6.03376e-17
6.20599e-17
6.383e-17
6.56492e-17
6.75189e-17
6.94404e-17
7.1415e-17
7.34443e-17
7.55297e-17
7.76726e-17
7.98747e-17
8.21374e-17
8.44624e-17
8.68514e-17
8.93061e-17
9.18282e-17
9.44194e-17
9.70817e-17
9.98169e-17
1.02627e-16
1.05514e-16
1.08479e-16
1.11526e-16
1.14655e-16
1.1787e-16
1.21172e-16
1.24564e-16
1.28048e-16
1.31626e-16
1.35302e-16
1.39076e-16
1.42953e-16
1.46934e-16
1.51023e-16
1.55222e-16
1.59534e-16
1.63961e-16
1.68508e-16
1.73176e-16
1.7797e-16
1.82892e-16
1.87945e-16
1.93133e-16
1.98459e-16
2.03928e-16
2.09541e-16
2.15304e-16
2.2122e-16
2.27292e-16
2.33525e-16
2.39922e-16
2.46489e-16
2.53228e-16
2.60145e-16
2.67243e-16
2.74528e-16
2.82003e-16
2.89674e-16
2.97546e-16
3.05623e-16
3.1391e-16
3.22412e-16
3.31136e-16
3.40085e-16
3.49266e-16
3.58685e-16
3.68346e-16
3.78256e-16
3.88421e-16
3.98846e-16
4.09538e-16
4.20504e-16
4.31749e-16
4.43281e-16
4.55105e-16
4.67229e-16
4.7966e-16
4.92405e-16
5.05471e-16
5.18865e-16
5.32594e-16
5.46667e-16
5.61091e-16
5.75873e-16
5.91023e-16
6.06546e-16
6.22453e-16
6.38751e-16
6.55448e-16
6.72554e-16
6.90075e-16
7.08022e-16
7.26403e-16
7.45226e-16
7.64501e-16
7.84236e-16
8.04441e-16
8.25124e-16
8.46294e-16
8.67961e-16
8.90133e-16
9.12819e-16
9.36029e-16
9.5977e-16
9.84053e-16
1.00888e-15
1.03427e-15
1.06023e-15
1.08676e-15
1.11387e-15
1.14157e-15
1.16987e-15
1.19877e-15
1.22828e-15
1.2584e-15
1.28915e-15
1.32052e-15
1.35252e-15
1.38515e-15
1.41841e-15
1.4523e-15
1.48683e-15
1.52199e-15
1.55778e-15
1.5942e-15
1.63123e-15
1.66888e-15
1.70712e-15
1.74595e-15
1.78536e-15
1.82532e-15
1.86582e-15
1.90683e-15
1.94833e-15
1.99028e-15
2.03265e-15
2.07539e-15
2.11847e-15
2.16184e-15
2.20543e-15
2.24918e-15
2.29303e-15
2.3369e-15
2.3807e-15
2.42434e-15
2.4677e-15
2.51068e-15
2.55316e-15
2.59498e-15
2.636e-15
2.67605e-15
2.71495e-15
2.7525e-15
2.78848e-15
2.82267e-15
2.85479e-15
2.8846e-15
2.91178e-15
2.93604e-15
2.95704e-15
2.97447e-15
2.98797e-15
2.99724e-15
3.00198e-15
2.02012e-22
6.47607e-22
1.13949e-21
1.67695e-21
2.25997e-21
2.8899e-21
3.56849e-21
4.29776e-21
5.08002e-21
5.91783e-21
6.81394e-21
7.77123e-21
8.79273e-21
9.88155e-21
1.10409e-20
1.2274e-20
1.35843e-20
1.49752e-20
1.645e-20
1.80124e-20
1.96658e-20
2.14141e-20
2.32608e-20
2.52099e-20
2.72651e-20
2.94305e-20
3.171e-20
3.41078e-20
3.66281e-20
3.92753e-20
4.20538e-20
4.4968e-20
4.80227e-20
5.12226e-20
5.45724e-20
5.80773e-20
6.17422e-20
6.55725e-20
6.95734e-20
7.37505e-20
7.81094e-20
8.26557e-20
8.73955e-20
9.23348e-20
9.74797e-20
1.02837e-19
1.08412e-19
1.14213e-19
1.20246e-19
1.26519e-19
1.33037e-19
1.3981e-19
1.46845e-19
1.54148e-19
1.61729e-19
1.69596e-19
1.77757e-19
1.86222e-19
1.94998e-19
2.04095e-19
2.13522e-19
2.23291e-19
2.33409e-19
2.43888e-19
2.54738e-19
2.65971e-19
2.77596e-19
2.89627e-19
3.02074e-19
3.14949e-19
3.28266e-19
3.42037e-19
3.56275e-19
3.70994e-19
3.86208e-19
4.01932e-19
4.18179e-19
4.34966e-19
4.52307e-19
4.7022e-19
4.8872e-19
5.07826e-19
5.27553e-19
5.47921e-19
5.68948e-19
5.90653e-19
6.13056e-19
6.36177e-19
6.60037e-19
6.84657e-19
7.1006e-19
7.36269e-19
7.63305e-19
7.91195e-19
8.19962e-19
8.49631e-19
8.8023e-19
9.11786e-19
9.44325e-19
9.77876e-19
1.01247e-18
1.04814e-18
1.0849e-18
1.12281e-18
1.16188e-18
1.20216e-18
1.24367e-18
1.28646e-18
1.33055e-18
1.376e-18
1.42283e-18
1.47109e-18
1.52082e-18
1.57206e-18
1.62486e-18
1.67925e-18
1.7353e-18
1.79304e-18
1.85253e-18
1.91381e-18
1.97693e-18
2.04196e-18
2.10895e-18
2.17795e-18
2.24901e-18
2.32221e-18
2.39761e-18
2.47526e-18
2.55523e-18
2.63759e-18
2.72241e-18
2.80976e-18
2.89971e-18
2.99234e-18
3.08773e-18
3.18595e-18
3.28709e-18
3.39123e-18
3.49846e-18
3.60886e-18
3.72254e-18
3.83958e-18
3.96008e-18
4.08415e-18
4.21187e-18
4.34337e-18
4.47874e-18
4.6181e-18
4.76157e-18
4.90926e-18
5.0613e-18
5.2178e-18
5.3789e-18
5.54473e-18
5.71543e-18
5.89113e-18
6.07198e-18
6.25813e-18
6.44972e-18
6.64692e-18
6.84989e-18
7.05878e-18
7.27378e-18
7.49505e-18
7.72277e-18
7.95714e-18
8.19833e-18
8.44654e-18
8.70197e-18
8.96484e-18
9.23534e-18
9.51371e-18
9.80015e-18
1.00949e-17
1.03982e-17
1.07103e-17
1.10314e-17
1.13619e-17
1.17019e-17
1.20517e-17
1.24116e-17
1.2782e-17
1.3163e-17
1.3555e-17
1.39583e-17
1.43733e-17
1.48001e-17
1.52393e-17
1.56911e-17
1.61559e-17
1.66341e-17
1.7126e-17
1.7632e-17
1.81525e-17
1.86879e-17
1.92387e-17
1.98052e-17
2.03879e-17
2.09873e-17
2.16039e-17
2.2238e-17
2.28902e-17
2.35611e-17
2.4251e-17
2.49606e-17
2.56904e-17
2.6441e-17
2.72129e-17
2.80067e-17
2.88231e-17
2.96626e-17
3.05259e-17
3.14137e-17
3.23266e-17
3.32654e-17
3.42306e-17
3.52232e-17
3.62438e-17
3.72932e-17
3.83721e-17
3.94815e-17
4.06221e-17
4.17947e-17
4.30004e-17
4.42399e-17
4.55141e-17
4.68242e-17
4.81709e-17
4.95554e-17
5.09786e-17
5.24416e-17
5.39454e-17
5.54913e-17
5.70802e-17
5.87135e-17
6.03922e-17
6.21176e-17
6.38911e-17
6.57137e-17
6.7587e-17
6.95122e-17
7.14908e-17
7.35242e-17
7.56137e-17
7.77611e-17
7.99677e-17
8.22352e-17
8.45652e-17
8.69594e-17
8.94194e-17
9.19471e-17
9.45442e-17
9.72125e-17
9.9954e-17
1.02771e-16
1.05664e-16
1.08637e-16
1.11691e-16
1.14828e-16
1.18051e-16
1.21361e-16
1.24761e-16
1.28254e-16
1.31842e-16
1.35527e-16
1.39311e-16
1.43198e-16
1.47191e-16
1.51291e-16
1.55501e-16
1.59825e-16
1.64265e-16
1.68825e-16
1.73507e-16
1.78315e-16
1.83251e-16
1.88319e-16
1.93523e-16
1.98866e-16
2.04351e-16
2.09983e-16
2.15764e-16
2.21698e-16
2.2779e-16
2.34044e-16
2.40462e-16
2.47051e-16
2.53813e-16
2.60754e-16
2.67877e-16
2.75187e-16
2.82689e-16
2.90388e-16
2.98288e-16
3.06395e-16
3.14713e-16
3.23247e-16
3.32004e-16
3.40988e-16
3.50205e-16
3.5966e-16
3.6936e-16
3.7931e-16
3.89517e-16
3.99985e-16
4.10722e-16
4.21734e-16
4.33028e-16
4.4461e-16
4.56486e-16
4.68665e-16
4.81152e-16
4.93955e-16
5.07081e-16
5.20538e-16
5.34333e-16
5.48474e-16
5.62969e-16
5.77825e-16
5.9305e-16
6.08654e-16
6.24643e-16
6.41027e-16
6.57814e-16
6.75012e-16
6.92631e-16
7.10679e-16
7.29164e-16
7.48097e-16
7.67486e-16
7.8734e-16
8.07668e-16
8.28481e-16
8.49786e-16
8.71593e-16
8.93912e-16
9.16751e-16
9.40121e-16
9.6403e-16
9.88488e-16
1.0135e-15
1.03908e-15
1.06524e-15
1.09198e-15
1.11931e-15
1.14724e-15
1.17578e-15
1.20493e-15
1.23471e-15
1.26511e-15
1.29615e-15
1.32783e-15
1.36015e-15
1.39312e-15
1.42675e-15
1.46102e-15
1.49595e-15
1.53153e-15
1.56777e-15
1.60465e-15
1.64218e-15
1.68035e-15
1.71915e-15
1.75857e-15
1.7986e-15
1.83923e-15
1.88043e-15
1.92218e-15
1.96447e-15
2.00725e-15
2.05051e-15
2.09421e-15
2.13829e-15
2.18273e-15
2.22747e-15
2.27244e-15
2.31759e-15
2.36285e-15
2.40812e-15
2.45334e-15
2.4984e-15
2.54318e-15
2.58759e-15
2.63147e-15
2.6747e-15
2.71712e-15
2.75855e-15
2.7988e-15
2.83768e-15
2.87496e-15
2.9104e-15
2.94374e-15
2.9747e-15
3.00297e-15
3.02824e-15
3.05016e-15
3.06839e-15
3.08257e-15
3.09234e-15
3.09737e-15
1.98229e-22
6.35961e-22
1.11872e-21
1.64792e-21
2.22436e-21
2.84916e-21
3.52386e-21
4.25032e-21
5.03076e-21
5.86766e-21
6.76375e-21
7.72192e-21
8.74519e-21
9.83672e-21
1.09997e-20
1.22376e-20
1.35536e-20
1.49513e-20
1.64341e-20
1.80057e-20
1.96698e-20
2.143e-20
2.32902e-20
2.52543e-20
2.73261e-20
2.95099e-20
3.18096e-20
3.42296e-20
3.67742e-20
3.94478e-20
4.22549e-20
4.52003e-20
4.82886e-20
5.15247e-20
5.49136e-20
5.84604e-20
6.21704e-20
6.60489e-20
7.01014e-20
7.43335e-20
7.8751e-20
8.33599e-20
8.81661e-20
9.31759e-20
9.83957e-20
1.03832e-19
1.09492e-19
1.15381e-19
1.21508e-19
1.2788e-19
1.34503e-19
1.41386e-19
1.48536e-19
1.55961e-19
1.6367e-19
1.71672e-19
1.79974e-19
1.88586e-19
1.97517e-19
2.06777e-19
2.16374e-19
2.2632e-19
2.36625e-19
2.47298e-19
2.58352e-19
2.69796e-19
2.81643e-19
2.93904e-19
3.06591e-19
3.19717e-19
3.33295e-19
3.47338e-19
3.61858e-19
3.76872e-19
3.92391e-19
4.08433e-19
4.2501e-19
4.4214e-19
4.59838e-19
4.78121e-19
4.97006e-19
5.16509e-19
5.3665e-19
5.57447e-19
5.78918e-19
6.01084e-19
6.23964e-19
6.4758e-19
6.71952e-19
6.97103e-19
7.23055e-19
7.49832e-19
7.77457e-19
8.05955e-19
8.35352e-19
8.65673e-19
8.96945e-19
9.29197e-19
9.62456e-19
9.96752e-19
1.03211e-18
1.06858e-18
1.10617e-18
1.14492e-18
1.18487e-18
1.22605e-18
1.2685e-18
1.31225e-18
1.35734e-18
1.40381e-18
1.45171e-18
1.50107e-18
1.55193e-18
1.60433e-18
1.65834e-18
1.71398e-18
1.7713e-18
1.83037e-18
1.89122e-18
1.95391e-18
2.01849e-18
2.08501e-18
2.15354e-18
2.22413e-18
2.29684e-18
2.37173e-18
2.44887e-18
2.52832e-18
2.61014e-18
2.69441e-18
2.7812e-18
2.87058e-18
2.96263e-18
3.05741e-18
3.15502e-18
3.25553e-18
3.35903e-18
3.4656e-18
3.57533e-18
3.68832e-18
3.80465e-18
3.92443e-18
4.04775e-18
4.17472e-18
4.30544e-18
4.44002e-18
4.57857e-18
4.7212e-18
4.86804e-18
5.0192e-18
5.1748e-18
5.33499e-18
5.49988e-18
5.66961e-18
5.84432e-18
6.02416e-18
6.20927e-18
6.39981e-18
6.59592e-18
6.79777e-18
7.00552e-18
7.21935e-18
7.43942e-18
7.66591e-18
7.89901e-18
8.13891e-18
8.3858e-18
8.63988e-18
8.90136e-18
9.17044e-18
9.44734e-18
9.73229e-18
1.00255e-17
1.03273e-17
1.06377e-17
1.09572e-17
1.1286e-17
1.16242e-17
1.19723e-17
1.23304e-17
1.26989e-17
1.3078e-17
1.34681e-17
1.38694e-17
1.42823e-17
1.47071e-17
1.51441e-17
1.55937e-17
1.60562e-17
1.65321e-17
1.70216e-17
1.75252e-17
1.80432e-17
1.85761e-17
1.91242e-17
1.96881e-17
2.02681e-17
2.08647e-17
2.14784e-17
2.21096e-17
2.27588e-17
2.34266e-17
2.41134e-17
2.48198e-17
2.55463e-17
2.62935e-17
2.70619e-17
2.78522e-17
2.8665e-17
2.95008e-17
3.03603e-17
3.12442e-17
3.21532e-17
3.30879e-17
3.4049e-17
3.50373e-17
3.60536e-17
3.70985e-17
3.8173e-17
3.92777e-17
4.04135e-17
4.15813e-17
4.2782e-17
4.40165e-17
4.52856e-17
4.65903e-17
4.79317e-17
4.93106e-17
5.07282e-17
5.21854e-17
5.36834e-17
5.52232e-17
5.68061e-17
5.8433e-17
6.01054e-17
6.18243e-17
6.35911e-17
6.54069e-17
6.72733e-17
6.91914e-17
7.11627e-17
7.31887e-17
7.52708e-17
7.74105e-17
7.96093e-17
8.18688e-17
8.41907e-17
8.65766e-17
8.90282e-17
9.15472e-17
9.41356e-17
9.6795e-17
9.95273e-17
1.02335e-16
1.05219e-16
1.08182e-16
1.11226e-16
1.14353e-16
1.17566e-16
1.20866e-16
1.24256e-16
1.27738e-16
1.31315e-16
1.34989e-16
1.38762e-16
1.42638e-16
1.46619e-16
1.50707e-16
1.54905e-16
1.59217e-16
1.63645e-16
1.68192e-16
1.72862e-16
1.77657e-16
1.8258e-16
1.87636e-16
1.92826e-16
1.98156e-16
2.03627e-16
2.09245e-16
2.15012e-16
2.20932e-16
2.2701e-16
2.33249e-16
2.39654e-16
2.46227e-16
2.52975e-16
2.59901e-16
2.67009e-16
2.74304e-16
2.81791e-16
2.89475e-16
2.97359e-16
3.05451e-16
3.13753e-16
3.22273e-16
3.31014e-16
3.39983e-16
3.49184e-16
3.58625e-16
3.68309e-16
3.78244e-16
3.88435e-16
3.98889e-16
4.09612e-16
4.20609e-16
4.31889e-16
4.43457e-16
4.5532e-16
4.67485e-16
4.79959e-16
4.9275e-16
5.05864e-16
5.1931e-16
5.33094e-16
5.47225e-16
5.6171e-16
5.76558e-16
5.91776e-16
6.07372e-16
6.23356e-16
6.39736e-16
6.5652e-16
6.73716e-16
6.91335e-16
7.09384e-16
7.27873e-16
7.46811e-16
7.66207e-16
7.86071e-16
8.06411e-16
8.27238e-16
8.48561e-16
8.70389e-16
8.92732e-16
9.15599e-16
9.39001e-16
9.62946e-16
9.87444e-16
1.0125e-15
1.03814e-15
1.06435e-15
1.09115e-15
1.11855e-15
1.14656e-15
1.17518e-15
1.20443e-15
1.23431e-15
1.26483e-15
1.29599e-15
1.3278e-15
1.36027e-15
1.3934e-15
1.4272e-15
1.46167e-15
1.4968e-15
1.53261e-15
1.5691e-15
1.60625e-15
1.64407e-15
1.68256e-15
1.7217e-15
1.76149e-15
1.80193e-15
1.84299e-15
1.88466e-15
1.92693e-15
1.96977e-15
2.01316e-15
2.05707e-15
2.10147e-15
2.14632e-15
2.19159e-15
2.23722e-15
2.28316e-15
2.32936e-15
2.37575e-15
2.42226e-15
2.4688e-15
2.5153e-15
2.56164e-15
2.60772e-15
2.65343e-15
2.69862e-15
2.74316e-15
2.78689e-15
2.82962e-15
2.87118e-15
2.91135e-15
2.94991e-15
2.9866e-15
3.02117e-15
3.05331e-15
3.08273e-15
3.10909e-15
3.13202e-15
3.15116e-15
3.16611e-15
3.17648e-15
3.18186e-15
1.94468e-22
6.23761e-22
1.09648e-21
1.61508e-21
2.18133e-21
2.79676e-21
3.46301e-21
4.182e-21
4.95591e-21
5.7872e-21
6.67854e-21
7.63282e-21
8.65304e-21
9.74234e-21
1.0904e-20
1.21412e-20
1.34576e-20
1.48564e-20
1.63414e-20
1.79161e-20
1.95842e-20
2.13495e-20
2.3216e-20
2.51874e-20
2.7268e-20
2.94617e-20
3.17728e-20
3.42057e-20
3.67647e-20
3.94544e-20
4.22795e-20
4.52445e-20
4.83545e-20
5.16144e-20
5.50292e-20
5.86042e-20
6.23448e-20
6.62563e-20
7.03446e-20
7.46152e-20
7.90741e-20
8.37273e-20
8.85811e-20
9.36417e-20
9.89158e-20
1.0441e-19
1.10131e-19
1.16086e-19
1.22283e-19
1.28727e-19
1.35429e-19
1.42394e-19
1.49631e-19
1.57148e-19
1.64954e-19
1.73058e-19
1.81468e-19
1.90193e-19
1.99243e-19
2.08627e-19
2.18356e-19
2.28439e-19
2.38887e-19
2.49712e-19
2.60923e-19
2.72532e-19
2.84551e-19
2.96992e-19
3.09868e-19
3.2319e-19
3.36973e-19
3.51229e-19
3.65972e-19
3.81217e-19
3.96979e-19
4.13271e-19
4.3011e-19
4.47512e-19
4.65492e-19
4.84069e-19
5.03259e-19
5.23079e-19
5.43549e-19
5.64687e-19
5.86513e-19
6.09046e-19
6.32308e-19
6.56318e-19
6.811e-19
7.06676e-19
7.33067e-19
7.60299e-19
7.88396e-19
8.17383e-19
8.47285e-19
8.78129e-19
9.09943e-19
9.42754e-19
9.76592e-19
1.01149e-18
1.04747e-18
1.08457e-18
1.12282e-18
1.16226e-18
1.20292e-18
1.24483e-18
1.28803e-18
1.33256e-18
1.37846e-18
1.42576e-18
1.47451e-18
1.52475e-18
1.57653e-18
1.62988e-18
1.68486e-18
1.7415e-18
1.79987e-18
1.86e-18
1.92196e-18
1.98579e-18
2.05154e-18
2.11928e-18
2.18906e-18
2.26094e-18
2.33498e-18
2.41124e-18
2.4898e-18
2.5707e-18
2.65403e-18
2.73985e-18
2.82824e-18
2.91926e-18
3.01301e-18
3.10954e-18
3.20895e-18
3.31132e-18
3.41674e-18
3.52528e-18
3.63705e-18
3.75213e-18
3.87063e-18
3.99263e-18
4.11824e-18
4.24757e-18
4.38073e-18
4.51781e-18
4.65894e-18
4.80423e-18
4.95381e-18
5.10779e-18
5.2663e-18
5.42948e-18
5.59745e-18
5.77036e-18
5.94834e-18
6.13154e-18
6.32012e-18
6.51423e-18
6.71401e-18
6.91965e-18
7.1313e-18
7.34914e-18
7.57334e-18
7.80409e-18
8.04157e-18
8.28598e-18
8.53751e-18
8.79637e-18
9.06276e-18
9.33691e-18
9.61903e-18
9.90934e-18
1.02081e-17
1.05155e-17
1.08319e-17
1.11574e-17
1.14923e-17
1.1837e-17
1.21916e-17
1.25565e-17
1.29319e-17
1.33182e-17
1.37156e-17
1.41245e-17
1.45452e-17
1.4978e-17
1.54233e-17
1.58814e-17
1.63527e-17
1.68376e-17
1.73364e-17
1.78495e-17
1.83773e-17
1.89203e-17
1.94788e-17
2.00534e-17
2.06444e-17
2.12523e-17
2.18776e-17
2.25208e-17
2.31824e-17
2.38628e-17
2.45627e-17
2.52825e-17
2.60228e-17
2.67842e-17
2.75672e-17
2.83725e-17
2.92007e-17
3.00524e-17
3.09283e-17
3.18291e-17
3.27553e-17
3.37078e-17
3.46872e-17
3.56944e-17
3.673e-17
3.77948e-17
3.88897e-17
4.00155e-17
4.1173e-17
4.23631e-17
4.35867e-17
4.48447e-17
4.6138e-17
4.74676e-17
4.88346e-17
5.02399e-17
5.16845e-17
5.31696e-17
5.46962e-17
5.62654e-17
5.78785e-17
5.95366e-17
6.12409e-17
6.29927e-17
6.47933e-17
6.66439e-17
6.8546e-17
7.05008e-17
7.25099e-17
7.45747e-17
7.66967e-17
7.88773e-17
8.11183e-17
8.34212e-17
8.57876e-17
8.82192e-17
9.07179e-17
9.32853e-17
9.59233e-17
9.86337e-17
1.01419e-16
1.0428e-16
1.07219e-16
1.10239e-16
1.13342e-16
1.16529e-16
1.19804e-16
1.23167e-16
1.26623e-16
1.30172e-16
1.33817e-16
1.37562e-16
1.41408e-16
1.45359e-16
1.49416e-16
1.53583e-16
1.57863e-16
1.62258e-16
1.66771e-16
1.71406e-16
1.76166e-16
1.81053e-16
1.86072e-16
1.91225e-16
1.96516e-16
2.01948e-16
2.07525e-16
2.13252e-16
2.1913e-16
2.25165e-16
2.31361e-16
2.37721e-16
2.44249e-16
2.5095e-16
2.57829e-16
2.64889e-16
2.72135e-16
2.79572e-16
2.87204e-16
2.95037e-16
3.03075e-16
3.11323e-16
3.19787e-16
3.28472e-16
3.37383e-16
3.46527e-16
3.55907e-16
3.65531e-16
3.75405e-16
3.85533e-16
3.95923e-16
4.06581e-16
4.17513e-16
4.28725e-16
4.40225e-16
4.52018e-16
4.64113e-16
4.76516e-16
4.89234e-16
5.02275e-16
5.15646e-16
5.29355e-16
5.4341e-16
5.57818e-16
5.72587e-16
5.87726e-16
6.03243e-16
6.19147e-16
6.35445e-16
6.52147e-16
6.69261e-16
6.86796e-16
7.04762e-16
7.23167e-16
7.42021e-16
7.61333e-16
7.81113e-16
8.0137e-16
8.22113e-16
8.43353e-16
8.65099e-16
8.8736e-16
9.10147e-16
9.3347e-16
9.57338e-16
9.8176e-16
1.00675e-15
1.03231e-15
1.05845e-15
1.08519e-15
1.11253e-15
1.14048e-15
1.16906e-15
1.19826e-15
1.2281e-15
1.25858e-15
1.28971e-15
1.32151e-15
1.35397e-15
1.3871e-15
1.42091e-15
1.4554e-15
1.49057e-15
1.52644e-15
1.56298e-15
1.60022e-15
1.63815e-15
1.67676e-15
1.71605e-15
1.75602e-15
1.79665e-15
1.83794e-15
1.87988e-15
1.92244e-15
1.96562e-15
2.00939e-15
2.05372e-15
2.0986e-15
2.14398e-15
2.18983e-15
2.23611e-15
2.28278e-15
2.32977e-15
2.37704e-15
2.42451e-15
2.47212e-15
2.51978e-15
2.5674e-15
2.61489e-15
2.66213e-15
2.70901e-15
2.75538e-15
2.80111e-15
2.84604e-15
2.88998e-15
2.93275e-15
2.97413e-15
3.0139e-15
3.0518e-15
3.08755e-15
3.12087e-15
3.15143e-15
3.17888e-15
3.20284e-15
3.22292e-15
3.23868e-15
3.24968e-15
3.25543e-15
1.90915e-22
6.12183e-22
1.07541e-21
1.5833e-21
2.13829e-21
2.74245e-21
3.39782e-21
4.10653e-21
4.87091e-21
5.69345e-21
6.57686e-21
7.524e-21
8.53786e-21
9.62157e-21
1.07783e-20
1.20115e-20
1.33244e-20
1.47206e-20
1.62036e-20
1.7777e-20
1.94447e-20
2.12104e-20
2.3078e-20
2.50515e-20
2.7135e-20
2.93327e-20
3.16488e-20
3.40878e-20
3.66541e-20
3.93523e-20
4.21872e-20
4.51635e-20
4.82862e-20
5.15604e-20
5.49912e-20
5.85839e-20
6.2344e-20
6.62771e-20
7.03889e-20
7.46852e-20
7.9172e-20
8.38555e-20
8.87419e-20
9.38379e-20
9.91499e-20
1.04685e-19
1.1045e-19
1.16451e-19
1.22698e-19
1.29196e-19
1.35953e-19
1.42979e-19
1.5028e-19
1.57865e-19
1.65743e-19
1.73922e-19
1.82412e-19
1.91221e-19
2.0036e-19
2.09838e-19
2.19666e-19
2.29853e-19
2.4041e-19
2.51349e-19
2.6268e-19
2.74415e-19
2.86566e-19
2.99145e-19
3.12165e-19
3.25638e-19
3.39578e-19
3.53999e-19
3.68914e-19
3.84339e-19
4.00287e-19
4.16774e-19
4.33816e-19
4.51429e-19
4.6963e-19
4.88435e-19
5.07863e-19
5.27931e-19
5.48658e-19
5.70063e-19
5.92166e-19
6.14987e-19
6.38547e-19
6.62868e-19
6.87972e-19
7.13881e-19
7.40618e-19
7.68209e-19
7.96677e-19
8.26048e-19
8.56348e-19
8.87605e-19
9.19846e-19
9.531e-19
9.87396e-19
1.02276e-18
1.05924e-18
1.09684e-18
1.13562e-18
1.1756e-18
1.21681e-18
1.2593e-18
1.3031e-18
1.34825e-18
1.39479e-18
1.44275e-18
1.49218e-18
1.54313e-18
1.59563e-18
1.64973e-18
1.70548e-18
1.76293e-18
1.82212e-18
1.88311e-18
1.94594e-18
2.01067e-18
2.07736e-18
2.14607e-18
2.21684e-18
2.28975e-18
2.36485e-18
2.44221e-18
2.52189e-18
2.60395e-18
2.68848e-18
2.77554e-18
2.8652e-18
2.95754e-18
3.05264e-18
3.15057e-18
3.25142e-18
3.35527e-18
3.46221e-18
3.57233e-18
3.68573e-18
3.80248e-18
3.9227e-18
4.04648e-18
4.17393e-18
4.30514e-18
4.44024e-18
4.57932e-18
4.72252e-18
4.86993e-18
5.0217e-18
5.17793e-18
5.33877e-18
5.50434e-18
5.67478e-18
5.85022e-18
6.03082e-18
6.21672e-18
6.40807e-18
6.60502e-18
6.80775e-18
7.01642e-18
7.23118e-18
7.45223e-18
7.67974e-18
7.9139e-18
8.15488e-18
8.4029e-18
8.65815e-18
8.92083e-18
9.19116e-18
9.46937e-18
9.75566e-18
1.00503e-17
1.03534e-17
1.06654e-17
1.09864e-17
1.13168e-17
1.16567e-17
1.20065e-17
1.23663e-17
1.27366e-17
1.31176e-17
1.35097e-17
1.3913e-17
1.4328e-17
1.47549e-17
1.51942e-17
1.56461e-17
1.6111e-17
1.65894e-17
1.70814e-17
1.75876e-17
1.81084e-17
1.86441e-17
1.91952e-17
1.97621e-17
2.03452e-17
2.0945e-17
2.1562e-17
2.21967e-17
2.28495e-17
2.35209e-17
2.42115e-17
2.49218e-17
2.56524e-17
2.64038e-17
2.71766e-17
2.79713e-17
2.87887e-17
2.96293e-17
3.04938e-17
3.13828e-17
3.2297e-17
3.32372e-17
3.42039e-17
3.51981e-17
3.62203e-17
3.72715e-17
3.83523e-17
3.94637e-17
4.06064e-17
4.17813e-17
4.29892e-17
4.42312e-17
4.55081e-17
4.68209e-17
4.81706e-17
4.95581e-17
5.09845e-17
5.24509e-17
5.39584e-17
5.5508e-17
5.71009e-17
5.87383e-17
6.04214e-17
6.21515e-17
6.39297e-17
6.57574e-17
6.7636e-17
6.95668e-17
7.15512e-17
7.35907e-17
7.56867e-17
7.78408e-17
8.00544e-17
8.23293e-17
8.4667e-17
8.70693e-17
8.95378e-17
9.20743e-17
9.46806e-17
9.73586e-17
1.0011e-16
1.02937e-16
1.05842e-16
1.08826e-16
1.11892e-16
1.15042e-16
1.18278e-16
1.21602e-16
1.25016e-16
1.28524e-16
1.32127e-16
1.35829e-16
1.3963e-16
1.43535e-16
1.47546e-16
1.51665e-16
1.55896e-16
1.6024e-16
1.64702e-16
1.69285e-16
1.73991e-16
1.78823e-16
1.83785e-16
1.8888e-16
1.94112e-16
1.99484e-16
2.05e-16
2.10662e-16
2.16476e-16
2.22445e-16
2.28573e-16
2.34863e-16
2.41321e-16
2.47949e-16
2.54754e-16
2.61738e-16
2.68906e-16
2.76263e-16
2.83815e-16
2.91565e-16
2.99518e-16
3.0768e-16
3.16055e-16
3.2465e-16
3.33469e-16
3.42518e-16
3.51802e-16
3.61328e-16
3.711e-16
3.81126e-16
3.91412e-16
4.01962e-16
4.12785e-16
4.23886e-16
4.35272e-16
4.4695e-16
4.58927e-16
4.7121e-16
4.83805e-16
4.96721e-16
5.09965e-16
5.23545e-16
5.37467e-16
5.51741e-16
5.66373e-16
5.81373e-16
5.96749e-16
6.12508e-16
6.28661e-16
6.45214e-16
6.62178e-16
6.7956e-16
6.97371e-16
7.15619e-16
7.34314e-16
7.53464e-16
7.73081e-16
7.93173e-16
8.13749e-16
8.3482e-16
8.56396e-16
8.78486e-16
9.01101e-16
9.2425e-16
9.47944e-16
9.72192e-16
9.97004e-16
1.02239e-15
1.04836e-15
1.07492e-15
1.10209e-15
1.12987e-15
1.15827e-15
1.18731e-15
1.21698e-15
1.2473e-15
1.27828e-15
1.30993e-15
1.34224e-15
1.37523e-15
1.40891e-15
1.44327e-15
1.47833e-15
1.51409e-15
1.55055e-15
1.58771e-15
1.62557e-15
1.66414e-15
1.7034e-15
1.74336e-15
1.78401e-15
1.82534e-15
1.86734e-15
1.91001e-15
1.95332e-15
1.99726e-15
2.0418e-15
2.08693e-15
2.13261e-15
2.17882e-15
2.22552e-15
2.27266e-15
2.3202e-15
2.36809e-15
2.41626e-15
2.46467e-15
2.51322e-15
2.56184e-15
2.61044e-15
2.65892e-15
2.70717e-15
2.75507e-15
2.80249e-15
2.84928e-15
2.89527e-15
2.94029e-15
2.98415e-15
3.02663e-15
3.06751e-15
3.10651e-15
3.14338e-15
3.17779e-15
3.20942e-15
3.23792e-15
3.26287e-15
3.28386e-15
3.30041e-15
3.31203e-15
3.31814e-15
1.87771e-22
6.01898e-22
1.0567e-21
1.55482e-21
2.09904e-21
2.69189e-21
3.33584e-21
4.03335e-21
4.78697e-21
5.59936e-21
6.47327e-21
7.41161e-21
8.41737e-21
9.49365e-21
1.06436e-20
1.18706e-20
1.3178e-20
1.45692e-20
1.60479e-20
1.76175e-20
1.9282e-20
2.1045e-20
2.29106e-20
2.48827e-20
2.69655e-20
2.91632e-20
3.14801e-20
3.39206e-20
3.64894e-20
3.91909e-20
4.20301e-20
4.50118e-20
4.81409e-20
5.14227e-20
5.48623e-20
5.84652e-20
6.22369e-20
6.61829e-20
7.03092e-20
7.46216e-20
7.91263e-20
8.38294e-20
8.87374e-20
9.38568e-20
9.91943e-20
1.04757e-19
1.10552e-19
1.16586e-19
1.22866e-19
1.29402e-19
1.36199e-19
1.43267e-19
1.50614e-19
1.58247e-19
1.66176e-19
1.7441e-19
1.82958e-19
1.91829e-19
2.01033e-19
2.1058e-19
2.2048e-19
2.30743e-19
2.41381e-19
2.52405e-19
2.63825e-19
2.75654e-19
2.87903e-19
3.00585e-19
3.13713e-19
3.273e-19
3.41358e-19
3.55903e-19
3.70948e-19
3.86507e-19
4.02597e-19
4.19232e-19
4.36428e-19
4.54201e-19
4.72569e-19
4.91548e-19
5.11157e-19
5.31414e-19
5.52337e-19
5.73947e-19
5.96262e-19
6.19304e-19
6.43093e-19
6.67652e-19
6.93002e-19
7.19167e-19
7.46171e-19
7.74037e-19
8.02791e-19
8.32458e-19
8.63066e-19
8.9464e-19
9.27211e-19
9.60806e-19
9.95455e-19
1.03119e-18
1.06804e-18
1.10604e-18
1.14522e-18
1.18562e-18
1.22727e-18
1.2702e-18
1.31447e-18
1.36009e-18
1.40712e-18
1.4556e-18
1.50556e-18
1.55705e-18
1.61012e-18
1.6648e-18
1.72116e-18
1.77922e-18
1.83905e-18
1.9007e-18
1.96422e-18
2.02966e-18
2.09708e-18
2.16653e-18
2.23808e-18
2.31179e-18
2.38771e-18
2.46592e-18
2.54648e-18
2.62945e-18
2.71491e-18
2.80293e-18
2.89359e-18
2.98695e-18
3.0831e-18
3.18212e-18
3.2841e-18
3.38911e-18
3.49724e-18
3.60859e-18
3.72325e-18
3.84131e-18
3.96287e-18
4.08804e-18
4.21692e-18
4.34961e-18
4.48622e-18
4.62687e-18
4.77167e-18
4.92075e-18
5.07423e-18
5.23222e-18
5.39487e-18
5.56231e-18
5.73467e-18
5.9121e-18
6.09474e-18
6.28275e-18
6.47626e-18
6.67545e-18
6.88048e-18
7.09151e-18
7.30872e-18
7.53228e-18
7.76237e-18
7.99919e-18
8.24292e-18
8.49376e-18
8.75191e-18
9.01759e-18
9.29101e-18
9.57238e-18
9.86194e-18
1.01599e-17
1.04666e-17
1.07821e-17
1.11068e-17
1.14409e-17
1.17847e-17
1.21385e-17
1.25025e-17
1.2877e-17
1.32624e-17
1.36589e-17
1.40669e-17
1.44866e-17
1.49185e-17
1.53628e-17
1.58199e-17
1.62901e-17
1.67739e-17
1.72717e-17
1.77837e-17
1.83105e-17
1.88523e-17
1.94098e-17
1.99832e-17
2.0573e-17
2.11798e-17
2.18039e-17
2.24459e-17
2.31062e-17
2.37854e-17
2.4484e-17
2.52025e-17
2.59415e-17
2.67015e-17
2.74833e-17
2.82872e-17
2.91141e-17
2.99644e-17
3.08389e-17
3.17382e-17
3.2663e-17
3.36141e-17
3.4592e-17
3.55977e-17
3.66318e-17
3.76952e-17
3.87886e-17
3.99128e-17
4.10688e-17
4.22573e-17
4.34794e-17
4.47358e-17
4.60276e-17
4.73557e-17
4.8721e-17
5.01247e-17
5.15678e-17
5.30513e-17
5.45763e-17
5.6144e-17
5.77555e-17
5.9412e-17
6.11148e-17
6.2865e-17
6.4664e-17
6.65131e-17
6.84137e-17
7.03671e-17
7.23747e-17
7.44381e-17
7.65586e-17
7.87379e-17
8.09775e-17
8.32791e-17
8.56442e-17
8.80747e-17
9.05721e-17
9.31384e-17
9.57754e-17
9.84848e-17
1.01269e-16
1.04129e-16
1.07068e-16
1.10087e-16
1.13189e-16
1.16376e-16
1.1965e-16
1.23013e-16
1.26468e-16
1.30018e-16
1.33663e-16
1.37408e-16
1.41255e-16
1.45206e-16
1.49264e-16
1.53432e-16
1.57712e-16
1.62109e-16
1.66624e-16
1.7126e-16
1.76022e-16
1.80912e-16
1.85933e-16
1.91088e-16
1.96382e-16
2.01818e-16
2.07399e-16
2.13129e-16
2.19013e-16
2.25052e-16
2.31253e-16
2.37619e-16
2.44153e-16
2.50861e-16
2.57746e-16
2.64814e-16
2.72068e-16
2.79513e-16
2.87155e-16
2.94997e-16
3.03046e-16
3.11305e-16
3.19781e-16
3.28479e-16
3.37404e-16
3.46561e-16
3.55957e-16
3.65597e-16
3.75488e-16
3.85634e-16
3.96044e-16
4.06722e-16
4.17675e-16
4.2891e-16
4.40434e-16
4.52253e-16
4.64374e-16
4.76806e-16
4.89554e-16
5.02627e-16
5.16031e-16
5.29775e-16
5.43867e-16
5.58314e-16
5.73125e-16
5.88308e-16
6.03871e-16
6.19823e-16
6.36172e-16
6.52928e-16
6.70099e-16
6.87695e-16
7.05724e-16
7.24196e-16
7.4312e-16
7.62507e-16
7.82365e-16
8.02705e-16
8.23535e-16
8.44867e-16
8.6671e-16
8.89075e-16
9.1197e-16
9.35407e-16
9.59396e-16
9.83947e-16
1.00907e-15
1.03477e-15
1.06107e-15
1.08797e-15
1.11548e-15
1.14361e-15
1.17237e-15
1.20177e-15
1.23183e-15
1.26253e-15
1.29391e-15
1.32596e-15
1.35869e-15
1.39211e-15
1.42622e-15
1.46103e-15
1.49655e-15
1.53278e-15
1.56972e-15
1.60737e-15
1.64573e-15
1.68481e-15
1.72461e-15
1.76511e-15
1.80631e-15
1.8482e-15
1.89079e-15
1.93404e-15
1.97796e-15
2.02252e-15
2.0677e-15
2.11347e-15
2.15982e-15
2.2067e-15
2.25409e-15
2.30194e-15
2.35021e-15
2.39883e-15
2.44776e-15
2.49694e-15
2.54627e-15
2.5957e-15
2.64512e-15
2.69444e-15
2.74354e-15
2.79231e-15
2.84062e-15
2.8883e-15
2.93521e-15
2.98117e-15
3.02598e-15
3.06942e-15
3.11126e-15
3.15125e-15
3.18909e-15
3.22448e-15
3.25708e-15
3.28652e-15
3.31237e-15
3.33419e-15
3.35148e-15
3.36366e-15
3.37011e-15
1.85137e-22
5.93277e-22
1.04103e-21
1.5309e-21
2.06578e-21
2.64852e-21
3.28196e-21
3.96888e-21
4.7121e-21
5.51446e-21
6.37885e-21
7.30821e-21
8.30556e-21
9.37401e-21
1.05167e-20
1.1737e-20
1.30381e-20
1.44235e-20
1.58968e-20
1.74615e-20
1.91215e-20
2.08805e-20
2.27425e-20
2.47114e-20
2.67916e-20
2.89871e-20
3.13023e-20
3.37418e-20
3.63101e-20
3.90118e-20
4.18518e-20
4.48351e-20
4.79667e-20
5.12517e-20
5.46954e-20
5.83034e-20
6.20811e-20
6.60343e-20
7.01689e-20
7.44907e-20
7.90061e-20
8.37212e-20
8.86426e-20
9.37768e-20
9.91307e-20
1.04711e-19
1.10525e-19
1.16581e-19
1.22885e-19
1.29445e-19
1.3627e-19
1.43367e-19
1.50744e-19
1.58411e-19
1.66376e-19
1.74648e-19
1.83237e-19
1.92151e-19
2.01401e-19
2.10996e-19
2.20948e-19
2.31266e-19
2.41961e-19
2.53046e-19
2.6453e-19
2.76426e-19
2.88746e-19