/*--------------------------------*- C++ -*----------------------------------*\
  =========                 |
  \\      /  F ield         | OpenFOAM: The Open Source CFD Toolbox
   \\    /   O peration     | Website:  https://openfoam.org
    \\  /    A nd           | Version:  dev
     \\/     M anipulation  |
\*---------------------------------------------------------------------------*/
FoamFile
{
    format      ascii;
    class       volScalarField;
    location    "0.64";
    object      cov;
}
// * * * * * * * * * * * * * * * * * * * * * * * * * * * * * * * * * * * * * //

dimensions      [0 0 0 0 0 0 0];

internalField   uniform 0;

boundaryField
{
    frontAndBack
    {
        type            empty;
    }
    inlet
    {
        type            calculated;
        value           uniform 0;
    }
    outlet
    {
        type            calculated;
        value           uniform 0;
    }
    substrate
    {
        type            calculated;
        value           nonuniform List<scalar> 
400
(
0.723392
0.709436
0.699197
0.689838
0.680945
0.672481
0.664346
0.656453
0.648737
0.641155
0.633672
0.626261
0.618904
0.611584
0.604291
0.597014
0.589749
0.582492
0.575238
0.567987
0.560739
0.553493
0.54625
0.539012
0.53178
0.524556
0.517342
0.510141
0.502955
0.495786
0.488637
0.481511
0.474409
0.467335
0.46029
0.453278
0.4463
0.43936
0.432458
0.425598
0.418782
0.412011
0.405288
0.398614
0.391991
0.385422
0.378907
0.372449
0.366049
0.359708
0.353428
0.34721
0.341056
0.334966
0.328941
0.322983
0.317092
0.31127
0.305516
0.299833
0.294219
0.288677
0.283206
0.277807
0.27248
0.267225
0.262044
0.256935
0.251899
0.246936
0.242046
0.237229
0.232486
0.227815
0.223216
0.218691
0.214237
0.209855
0.205545
0.201305
0.197137
0.193038
0.189009
0.18505
0.181159
0.177337
0.173581
0.169893
0.166271
0.162715
0.159223
0.155796
0.152433
0.149132
0.145893
0.142716
0.139599
0.136542
0.133544
0.130604
0.127722
0.124896
0.122127
0.119412
0.116752
0.114145
0.11159
0.109088
0.106636
0.104235
0.101883
0.0995798
0.0973243
0.0951159
0.0929536
0.0908368
0.0887647
0.0867364
0.0847512
0.0828084
0.0809071
0.0790467
0.0772263
0.0754453
0.0737028
0.0719983
0.0703309
0.0687
0.0671049
0.0655448
0.0640192
0.0625273
0.0610684
0.059642
0.0582473
0.0568838
0.0555508
0.0542476
0.0529738
0.0517286
0.0505116
0.049322
0.0481595
0.0470233
0.0459129
0.0448278
0.0437676
0.0427315
0.0417192
0.0407301
0.0397637
0.0388195
0.0378972
0.036996
0.0361158
0.0352559
0.0344159
0.0335954
0.032794
0.0320112
0.0312467
0.0305
0.0297707
0.0290585
0.0283629
0.0276837
0.0270203
0.0263726
0.0257401
0.0251224
0.0245193
0.0239304
0.0233554
0.022794
0.0222458
0.0217106
0.0211881
0.0206779
0.0201799
0.0196936
0.0192189
0.0187555
0.0183031
0.0178615
0.0174304
0.0170095
0.0165987
0.0161977
0.0158062
0.0154242
0.0150512
0.0146872
0.0143318
0.013985
0.0136465
0.0133161
0.0129936
0.0126788
0.0123716
0.0120718
0.0117792
0.0114936
0.0112149
0.0109428
0.0106774
0.0104183
0.0101654
0.00991867
0.00967786
0.00944286
0.00921352
0.00898971
0.0087713
0.00855817
0.00835018
0.00814722
0.00794916
0.00775588
0.00756728
0.00738324
0.00720365
0.00702841
0.00685741
0.00669055
0.00652772
0.00636885
0.00621382
0.00606254
0.00591494
0.00577091
0.00563037
0.00549324
0.00535944
0.00522888
0.0051015
0.0049772
0.00485592
0.00473759
0.00462213
0.00450947
0.00439956
0.00429231
0.00418767
0.00408557
0.00398595
0.00388875
0.00379392
0.0037014
0.00361112
0.00352304
0.00343711
0.00335326
0.00327145
0.00319164
0.00311377
0.00303779
0.00296367
0.00289134
0.00282078
0.00275194
0.00268478
0.00261925
0.00255531
0.00249294
0.00243208
0.00237271
0.00231478
0.00225827
0.00220313
0.00214934
0.00209686
0.00204566
0.00199571
0.00194697
0.00189942
0.00185304
0.00180778
0.00176363
0.00172055
0.00167853
0.00163753
0.00159753
0.00155851
0.00152044
0.00148329
0.00144706
0.00141171
0.00137722
0.00134357
0.00131075
0.00127872
0.00124748
0.001217
0.00118726
0.00115825
0.00112995
0.00110234
0.0010754
0.00104912
0.00102349
0.000998474
0.000974073
0.000950268
0.000927045
0.000904389
0.000882286
0.000860723
0.000839686
0.000819164
0.000799142
0.00077961
0.000760555
0.000741965
0.00072383
0.000706137
0.000688877
0.000672039
0.000655611
0.000639586
0.000623951
0.000608699
0.00059382
0.000579304
0.000565142
0.000551327
0.00053785
0.000524701
0.000511875
0.000499361
0.000487154
0.000475244
0.000463626
0.000452292
0.000441235
0.000430448
0.000419925
0.00040966
0.000399645
0.000389875
0.000380344
0.000371046
0.000361976
0.000353128
0.000344496
0.000336075
0.00032786
0.000319847
0.00031203
0.000304404
0.000296965
0.000289709
0.000282631
0.000275726
0.000268991
0.000262422
0.000256014
0.000249764
0.000243669
0.000237723
0.000231925
0.000226271
0.000220757
0.000215381
0.000210139
0.000205028
0.000200046
0.00019519
0.000190458
0.000185847
0.000181355
0.00017698
0.000172721
0.000168574
0.000164539
0.000160615
0.0001568
0.000153094
0.000149496
0.000146006
0.000142623
0.000139348
0.000136183
0.000133127
0.000130184
0.000127355
0.000124643
0.000122052
0.000119586
0.00011725
0.00011505
0.000112993
0.000111089
0.000109345
0.000107772
0.000106383
0.00010519
0.000104207
0.000103449
0.000102931
0.000102667
)
;
    }
    Wall
    {
        type            calculated;
        value           nonuniform List<scalar> 
400
(
0.723392
0.709436
0.699198
0.689839
0.680945
0.67248
0.664345
0.656451
0.648735
0.641153
0.633669
0.626259
0.618901
0.611582
0.604288
0.597012
0.589747
0.58249
0.575236
0.567986
0.560737
0.553491
0.546249
0.539011
0.531779
0.524555
0.517341
0.510141
0.502955
0.495786
0.488637
0.481511
0.474409
0.467335
0.460291
0.453279
0.446301
0.439361
0.432459
0.425599
0.418783
0.412012
0.405289
0.398615
0.391993
0.385423
0.378909
0.372451
0.366051
0.35971
0.35343
0.347212
0.341058
0.334967
0.328943
0.322985
0.317094
0.311272
0.305518
0.299835
0.294221
0.288679
0.283208
0.277809
0.272482
0.267227
0.262046
0.256937
0.251901
0.246938
0.242048
0.237231
0.232488
0.227817
0.223219
0.218693
0.214239
0.209857
0.205547
0.201307
0.197139
0.19304
0.189011
0.185052
0.181161
0.177338
0.173583
0.169895
0.166273
0.162717
0.159225
0.155798
0.152434
0.149133
0.145895
0.142717
0.1396
0.136543
0.133545
0.130606
0.127723
0.124898
0.122128
0.119413
0.116753
0.114146
0.111591
0.109089
0.106637
0.104236
0.101884
0.0995809
0.0973254
0.0951169
0.0929547
0.0908379
0.0887657
0.0867374
0.0847522
0.0828094
0.0809081
0.0790476
0.0772272
0.0754461
0.0737037
0.0719991
0.0703318
0.0687008
0.0671057
0.0655456
0.06402
0.062528
0.0610692
0.0596427
0.058248
0.0568845
0.0555514
0.0542483
0.0529744
0.0517293
0.0505122
0.0493227
0.0481601
0.0470239
0.0459135
0.0448284
0.0437681
0.0427321
0.0417197
0.0407306
0.0397642
0.03882
0.0378976
0.0369965
0.0361162
0.0352563
0.0344164
0.0335959
0.0327944
0.0320117
0.0312471
0.0305004
0.0297711
0.0290589
0.0283633
0.027684
0.0270207
0.0263729
0.0257404
0.0251227
0.0245196
0.0239307
0.0233557
0.0227943
0.0222461
0.0217109
0.0211884
0.0206782
0.0201801
0.0196939
0.0192192
0.0187558
0.0183034
0.0178617
0.0174306
0.0170098
0.0165989
0.0161979
0.0158065
0.0154244
0.0150514
0.0146874
0.014332
0.0139852
0.0136467
0.0133163
0.0129938
0.012679
0.0123718
0.012072
0.0117794
0.0114938
0.011215
0.010943
0.0106775
0.0104184
0.0101656
0.00991882
0.00967801
0.009443
0.00921366
0.00898985
0.00877144
0.0085583
0.00835031
0.00814735
0.00794928
0.00775601
0.0075674
0.00738336
0.00720377
0.00702852
0.00685752
0.00669065
0.00652783
0.00636895
0.00621392
0.00606264
0.00591503
0.005771
0.00563046
0.00549333
0.00535953
0.00522897
0.00510158
0.00497729
0.00485601
0.00473767
0.00462221
0.00450955
0.00439963
0.00429238
0.00418774
0.00408564
0.00398602
0.00388882
0.00379399
0.00370146
0.00361119
0.0035231
0.00343717
0.00335332
0.00327151
0.0031917
0.00311382
0.00303785
0.00296372
0.0028914
0.00282083
0.00275199
0.00268482
0.00261929
0.00255536
0.00249298
0.00243213
0.00237275
0.00231483
0.00225831
0.00220317
0.00214938
0.0020969
0.0020457
0.00199574
0.00194701
0.00189946
0.00185307
0.00180781
0.00176366
0.00172058
0.00167856
0.00163756
0.00159756
0.00155854
0.00152046
0.00148332
0.00144709
0.00141173
0.00137724
0.0013436
0.00131077
0.00127874
0.0012475
0.00121702
0.00118728
0.00115827
0.00112997
0.00110236
0.00107542
0.00104914
0.0010235
0.000998493
0.000974092
0.000950286
0.000927062
0.000904406
0.000882302
0.000860739
0.000839702
0.000819179
0.000799157
0.000779625
0.000760569
0.000741979
0.000723843
0.000706151
0.00068889
0.000672051
0.000655624
0.000639598
0.000623963
0.000608711
0.000593831
0.000579315
0.000565153
0.000551338
0.00053786
0.000524711
0.000511884
0.000499371
0.000487163
0.000475253
0.000463635
0.000452301
0.000441243
0.000430456
0.000419933
0.000409667
0.000399652
0.000389882
0.000380351
0.000371053
0.000361983
0.000353134
0.000344502
0.000336081
0.000327866
0.000319853
0.000312035
0.00030441
0.000296971
0.000289714
0.000282636
0.000275731
0.000268996
0.000262426
0.000256019
0.000249769
0.000243673
0.000237727
0.000231929
0.000226275
0.000220761
0.000215384
0.000210142
0.000205032
0.00020005
0.000195194
0.000190461
0.00018585
0.000181358
0.000176983
0.000172723
0.000168577
0.000164542
0.000160618
0.000156803
0.000153097
0.000149498
0.000146008
0.000142625
0.00013935
0.000136185
0.00013313
0.000130186
0.000127357
0.000124645
0.000122054
0.000119587
0.000117251
0.000115052
0.000112995
0.00011109
0.000109347
0.000107774
0.000106385
0.000105192
0.000104209
0.000103451
0.000102933
0.000102669
)
;
    }
}


// ************************************************************************* //
