/*--------------------------------*- C++ -*----------------------------------*\
  =========                 |
  \\      /  F ield         | OpenFOAM: The Open Source CFD Toolbox
   \\    /   O peration     | Website:  https://openfoam.org
    \\  /    A nd           | Version:  dev
     \\/     M anipulation  |
\*---------------------------------------------------------------------------*/
FoamFile
{
    format      ascii;
    class       volScalarField;
    location    "0.64";
    object      Exp1;
}
// * * * * * * * * * * * * * * * * * * * * * * * * * * * * * * * * * * * * * //

dimensions      [0 0 0 0 0 0 0];

internalField   uniform 0;

boundaryField
{
    frontAndBack
    {
        type            empty;
    }
    inlet
    {
        type            calculated;
        value           uniform 0;
    }
    outlet
    {
        type            calculated;
        value           uniform 0;
    }
    substrate
    {
        type            calculated;
        value           nonuniform List<scalar> 
400
(
2.69729e-16
8.59095e-16
1.50749e-15
2.2122e-15
2.97368e-15
3.79457e-15
4.67746e-15
5.62504e-15
6.64035e-15
7.72667e-15
8.88752e-15
1.01265e-14
1.14476e-14
1.28545e-14
1.43514e-14
1.59424e-14
1.76316e-14
1.94233e-14
2.13218e-14
2.33315e-14
2.54569e-14
2.77026e-14
3.0073e-14
3.2573e-14
3.52074e-14
3.79809e-14
4.08987e-14
4.39658e-14
4.71873e-14
5.05687e-14
5.41152e-14
5.78326e-14
6.17264e-14
6.58024e-14
7.00666e-14
7.4525e-14
7.91838e-14
8.40495e-14
8.91284e-14
9.44273e-14
9.99529e-14
1.05712e-13
1.11713e-13
1.17961e-13
1.24465e-13
1.31233e-13
1.38272e-13
1.4559e-13
1.53196e-13
1.61097e-13
1.69304e-13
1.77824e-13
1.86667e-13
1.95842e-13
2.05359e-13
2.15228e-13
2.25458e-13
2.3606e-13
2.47046e-13
2.58424e-13
2.70208e-13
2.82408e-13
2.95036e-13
3.08105e-13
3.21626e-13
3.35612e-13
3.50078e-13
3.65035e-13
3.80498e-13
3.96481e-13
4.12999e-13
4.30066e-13
4.47698e-13
4.6591e-13
4.8472e-13
5.04142e-13
5.24195e-13
5.44897e-13
5.66264e-13
5.88315e-13
6.1107e-13
6.34547e-13
6.58768e-13
6.83751e-13
7.09519e-13
7.36093e-13
7.63495e-13
7.91748e-13
8.20876e-13
8.50901e-13
8.8185e-13
9.13748e-13
9.46619e-13
9.80492e-13
1.01539e-12
1.05135e-12
1.08839e-12
1.12655e-12
1.16585e-12
1.20633e-12
1.24802e-12
1.29095e-12
1.33516e-12
1.38067e-12
1.42753e-12
1.47577e-12
1.52543e-12
1.57654e-12
1.62915e-12
1.6833e-12
1.73902e-12
1.79637e-12
1.85538e-12
1.91609e-12
1.97856e-12
2.04283e-12
2.10895e-12
2.17696e-12
2.24692e-12
2.31889e-12
2.3929e-12
2.46902e-12
2.5473e-12
2.6278e-12
2.71058e-12
2.7957e-12
2.88321e-12
2.97319e-12
3.06569e-12
3.16078e-12
3.25853e-12
3.35901e-12
3.46229e-12
3.56844e-12
3.67754e-12
3.78966e-12
3.90488e-12
4.02327e-12
4.14493e-12
4.26993e-12
4.39836e-12
4.53031e-12
4.66586e-12
4.80511e-12
4.94816e-12
5.09509e-12
5.246e-12
5.401e-12
5.56019e-12
5.72367e-12
5.89155e-12
6.06394e-12
6.24096e-12
6.42271e-12
6.60931e-12
6.80089e-12
6.99756e-12
7.19945e-12
7.4067e-12
7.61942e-12
7.83776e-12
8.06184e-12
8.29182e-12
8.52782e-12
8.77001e-12
9.01852e-12
9.2735e-12
9.53512e-12
9.80353e-12
1.00789e-11
1.03614e-11
1.06511e-11
1.09483e-11
1.12532e-11
1.15659e-11
1.18865e-11
1.22153e-11
1.25525e-11
1.28983e-11
1.32528e-11
1.36163e-11
1.3989e-11
1.4371e-11
1.47626e-11
1.51641e-11
1.55755e-11
1.59973e-11
1.64295e-11
1.68724e-11
1.73263e-11
1.77914e-11
1.82679e-11
1.87562e-11
1.92564e-11
1.97689e-11
2.02938e-11
2.08315e-11
2.13823e-11
2.19464e-11
2.25241e-11
2.31156e-11
2.37214e-11
2.43417e-11
2.49768e-11
2.56271e-11
2.62928e-11
2.69742e-11
2.76717e-11
2.83857e-11
2.91164e-11
2.98642e-11
3.06296e-11
3.14127e-11
3.2214e-11
3.30338e-11
3.38726e-11
3.47307e-11
3.56085e-11
3.65064e-11
3.74247e-11
3.83639e-11
3.93244e-11
4.03067e-11
4.1311e-11
4.23379e-11
4.33878e-11
4.44612e-11
4.55584e-11
4.66799e-11
4.78263e-11
4.89979e-11
5.01952e-11
5.14187e-11
5.26689e-11
5.39463e-11
5.52514e-11
5.65846e-11
5.79465e-11
5.93377e-11
6.07585e-11
6.22096e-11
6.36915e-11
6.52048e-11
6.67499e-11
6.83274e-11
6.99379e-11
7.1582e-11
7.32602e-11
7.49731e-11
7.67214e-11
7.85054e-11
8.0326e-11
8.21836e-11
8.4079e-11
8.60126e-11
8.79852e-11
8.99973e-11
9.20496e-11
9.41427e-11
9.62773e-11
9.84539e-11
1.00673e-10
1.02936e-10
1.05243e-10
1.07595e-10
1.09992e-10
1.12435e-10
1.14926e-10
1.17463e-10
1.20049e-10
1.22683e-10
1.25368e-10
1.28102e-10
1.30888e-10
1.33725e-10
1.36615e-10
1.39557e-10
1.42554e-10
1.45605e-10
1.48712e-10
1.51875e-10
1.55094e-10
1.58371e-10
1.61707e-10
1.65101e-10
1.68556e-10
1.7207e-10
1.75646e-10
1.79284e-10
1.82985e-10
1.8675e-10
1.90578e-10
1.94472e-10
1.98432e-10
2.02458e-10
2.06551e-10
2.10713e-10
2.14943e-10
2.19243e-10
2.23613e-10
2.28054e-10
2.32567e-10
2.37153e-10
2.41811e-10
2.46544e-10
2.51351e-10
2.56234e-10
2.61193e-10
2.66229e-10
2.71343e-10
2.76535e-10
2.81806e-10
2.87156e-10
2.92587e-10
2.98099e-10
3.03692e-10
3.09368e-10
3.15127e-10
3.20969e-10
3.26895e-10
3.32907e-10
3.39004e-10
3.45186e-10
3.51456e-10
3.57812e-10
3.64256e-10
3.70788e-10
3.77409e-10
3.84119e-10
3.90918e-10
3.97808e-10
4.04787e-10
4.11858e-10
4.19019e-10
4.26272e-10
4.33617e-10
4.41053e-10
4.48582e-10
4.56202e-10
4.63915e-10
4.71721e-10
4.79618e-10
4.87608e-10
4.95691e-10
5.03865e-10
5.12132e-10
5.20489e-10
5.28938e-10
5.37478e-10
5.46107e-10
5.54826e-10
5.63633e-10
5.72528e-10
5.81509e-10
5.90575e-10
5.99725e-10
6.08958e-10
6.1827e-10
6.27661e-10
6.37128e-10
6.46668e-10
6.56279e-10
6.65958e-10
6.75701e-10
6.85505e-10
6.95364e-10
7.05275e-10
7.15233e-10
7.25231e-10
7.35263e-10
7.45323e-10
7.55402e-10
7.65493e-10
7.75585e-10
7.85669e-10
7.95734e-10
8.05766e-10
8.15752e-10
8.25678e-10
8.35526e-10
8.45279e-10
8.54916e-10
8.64415e-10
8.73752e-10
8.82901e-10
8.91833e-10
9.00515e-10
9.08913e-10
9.16988e-10
9.247e-10
9.32002e-10
9.38845e-10
9.45176e-10
9.50938e-10
9.56069e-10
9.60506e-10
9.64181e-10
9.67026e-10
9.68977e-10
9.69974e-10
)
;
    }
    Wall
    {
        type            calculated;
        value           nonuniform List<scalar> 
400
(
2.69724e-16
8.59079e-16
1.50746e-15
2.21215e-15
2.97361e-15
3.79448e-15
4.67734e-15
5.62489e-15
6.64016e-15
7.72644e-15
8.88724e-15
1.01262e-14
1.14472e-14
1.28541e-14
1.43509e-14
1.59418e-14
1.76309e-14
1.94225e-14
2.1321e-14
2.33306e-14
2.54559e-14
2.77014e-14
3.00718e-14
3.25717e-14
3.52059e-14
3.79794e-14
4.0897e-14
4.3964e-14
4.71854e-14
5.05667e-14
5.41131e-14
5.78304e-14
6.1724e-14
6.57999e-14
7.0064e-14
7.45223e-14
7.9181e-14
8.40465e-14
8.91253e-14
9.4424e-14
9.99495e-14
1.05709e-13
1.11709e-13
1.17957e-13
1.24461e-13
1.31228e-13
1.38267e-13
1.45585e-13
1.53191e-13
1.61092e-13
1.69298e-13
1.77818e-13
1.86661e-13
1.95836e-13
2.05353e-13
2.15221e-13
2.25451e-13
2.36053e-13
2.47038e-13
2.58416e-13
2.702e-13
2.82399e-13
2.95027e-13
3.08095e-13
3.21616e-13
3.35602e-13
3.50067e-13
3.65024e-13
3.80487e-13
3.96469e-13
4.12987e-13
4.30053e-13
4.47685e-13
4.65897e-13
4.84706e-13
5.04128e-13
5.24181e-13
5.44881e-13
5.66248e-13
5.88299e-13
6.11053e-13
6.3453e-13
6.58749e-13
6.83732e-13
7.095e-13
7.36073e-13
7.63474e-13
7.91727e-13
8.20853e-13
8.50878e-13
8.81827e-13
9.13723e-13
9.46594e-13
9.80465e-13
1.01537e-12
1.05132e-12
1.08836e-12
1.12652e-12
1.16582e-12
1.2063e-12
1.24799e-12
1.29092e-12
1.33512e-12
1.38063e-12
1.42749e-12
1.47573e-12
1.52538e-12
1.5765e-12
1.62911e-12
1.68325e-12
1.73898e-12
1.79632e-12
1.85533e-12
1.91604e-12
1.97851e-12
2.04278e-12
2.10889e-12
2.1769e-12
2.24687e-12
2.31882e-12
2.39284e-12
2.46895e-12
2.54723e-12
2.62773e-12
2.71051e-12
2.79562e-12
2.88314e-12
2.97311e-12
3.06561e-12
3.1607e-12
3.25845e-12
3.35893e-12
3.4622e-12
3.56835e-12
3.67745e-12
3.78956e-12
3.90478e-12
4.02317e-12
4.14482e-12
4.26982e-12
4.39825e-12
4.53019e-12
4.66574e-12
4.80499e-12
4.94803e-12
5.09496e-12
5.24587e-12
5.40087e-12
5.56005e-12
5.72353e-12
5.89141e-12
6.06379e-12
6.2408e-12
6.42255e-12
6.60915e-12
6.80072e-12
6.99739e-12
7.19928e-12
7.40652e-12
7.61923e-12
7.83756e-12
8.06164e-12
8.29161e-12
8.52761e-12
8.76979e-12
9.0183e-12
9.27328e-12
9.53489e-12
9.80329e-12
1.00786e-11
1.03611e-11
1.06509e-11
1.09481e-11
1.12529e-11
1.15656e-11
1.18862e-11
1.2215e-11
1.25522e-11
1.2898e-11
1.32525e-11
1.3616e-11
1.39886e-11
1.43707e-11
1.47623e-11
1.51637e-11
1.55752e-11
1.59969e-11
1.64291e-11
1.6872e-11
1.73259e-11
1.7791e-11
1.82675e-11
1.87557e-11
1.9256e-11
1.97684e-11
2.02933e-11
2.0831e-11
2.13818e-11
2.19458e-11
2.25235e-11
2.31151e-11
2.37209e-11
2.43412e-11
2.49762e-11
2.56265e-11
2.62921e-11
2.69735e-11
2.76711e-11
2.8385e-11
2.91157e-11
2.98635e-11
3.06288e-11
3.14119e-11
3.22132e-11
3.30331e-11
3.38718e-11
3.47299e-11
3.56077e-11
3.65055e-11
3.74238e-11
3.8363e-11
3.93235e-11
4.03057e-11
4.131e-11
4.23369e-11
4.33868e-11
4.44601e-11
4.55573e-11
4.66788e-11
4.78251e-11
4.89967e-11
5.0194e-11
5.14175e-11
5.26677e-11
5.3945e-11
5.52501e-11
5.65833e-11
5.79452e-11
5.93363e-11
6.07571e-11
6.22082e-11
6.36901e-11
6.52033e-11
6.67483e-11
6.83258e-11
6.99363e-11
7.15804e-11
7.32585e-11
7.49714e-11
7.67196e-11
7.85036e-11
8.03241e-11
8.21818e-11
8.4077e-11
8.60106e-11
8.79832e-11
8.99952e-11
9.20475e-11
9.41405e-11
9.62751e-11
9.84517e-11
1.00671e-10
1.02934e-10
1.05241e-10
1.07593e-10
1.0999e-10
1.12433e-10
1.14923e-10
1.1746e-10
1.20046e-10
1.22681e-10
1.25365e-10
1.28099e-10
1.30885e-10
1.33722e-10
1.36612e-10
1.39554e-10
1.42551e-10
1.45602e-10
1.48709e-10
1.51871e-10
1.55091e-10
1.58368e-10
1.61703e-10
1.65098e-10
1.68552e-10
1.72066e-10
1.75642e-10
1.7928e-10
1.82981e-10
1.86746e-10
1.90574e-10
1.94468e-10
1.98427e-10
2.02453e-10
2.06547e-10
2.10708e-10
2.14938e-10
2.19238e-10
2.23608e-10
2.28049e-10
2.32562e-10
2.37147e-10
2.41806e-10
2.46539e-10
2.51346e-10
2.56229e-10
2.61188e-10
2.66224e-10
2.71337e-10
2.76529e-10
2.81799e-10
2.8715e-10
2.9258e-10
2.98092e-10
3.03686e-10
3.09361e-10
3.1512e-10
3.20962e-10
3.26889e-10
3.329e-10
3.38997e-10
3.45179e-10
3.51448e-10
3.57805e-10
3.64249e-10
3.70781e-10
3.77401e-10
3.84111e-10
3.9091e-10
3.978e-10
4.04779e-10
4.1185e-10
4.19011e-10
4.26264e-10
4.33608e-10
4.41044e-10
4.48573e-10
4.56193e-10
4.63906e-10
4.71711e-10
4.79609e-10
4.87599e-10
4.95681e-10
5.03855e-10
5.12122e-10
5.20479e-10
5.28928e-10
5.37467e-10
5.46097e-10
5.54815e-10
5.63622e-10
5.72517e-10
5.81498e-10
5.90564e-10
5.99714e-10
6.08946e-10
6.18258e-10
6.27649e-10
6.37115e-10
6.46656e-10
6.56267e-10
6.65945e-10
6.75688e-10
6.85492e-10
6.95351e-10
7.05262e-10
7.1522e-10
7.25217e-10
7.3525e-10
7.45309e-10
7.55388e-10
7.65479e-10
7.75571e-10
7.85655e-10
7.95719e-10
8.05752e-10
8.15738e-10
8.25663e-10
8.35512e-10
8.45264e-10
8.54901e-10
8.644e-10
8.73737e-10
8.82886e-10
8.91818e-10
9.005e-10
9.08898e-10
9.16974e-10
9.24686e-10
9.31988e-10
9.38831e-10
9.45163e-10
9.50924e-10
9.56056e-10
9.60493e-10
9.64168e-10
9.67015e-10
9.68967e-10
9.69964e-10
)
;
    }
}


// ************************************************************************* //
