/*--------------------------------*- C++ -*----------------------------------*\
  =========                 |
  \\      /  F ield         | OpenFOAM: The Open Source CFD Toolbox
   \\    /   O peration     | Website:  https://openfoam.org
    \\  /    A nd           | Version:  dev
     \\/     M anipulation  |
\*---------------------------------------------------------------------------*/
FoamFile
{
    format      ascii;
    class       volScalarField;
    location    "0.64";
    object      N1;
}
// * * * * * * * * * * * * * * * * * * * * * * * * * * * * * * * * * * * * * //

dimensions      [0 0 0 0 0 0 0];

internalField   nonuniform List<scalar> 
8000
(
2.04791e-15
6.52429e-15
1.14506e-14
1.68062e-14
2.25947e-14
2.88365e-14
3.5551e-14
4.27592e-14
5.04841e-14
5.8751e-14
6.75867e-14
7.70193e-14
8.70781e-14
9.77932e-14
1.09195e-13
1.21316e-13
1.34188e-13
1.47843e-13
1.62315e-13
1.77637e-13
1.93844e-13
2.10971e-13
2.29053e-13
2.48127e-13
2.68229e-13
2.89396e-13
3.11668e-13
3.35084e-13
3.59683e-13
3.85507e-13
4.12596e-13
4.40995e-13
4.70746e-13
5.01894e-13
5.34486e-13
5.68567e-13
6.04185e-13
6.4139e-13
6.80232e-13
7.20761e-13
7.63031e-13
8.07095e-13
8.53008e-13
9.00827e-13
9.50609e-13
1.00241e-12
1.0563e-12
1.11234e-12
1.17058e-12
1.2311e-12
1.29395e-12
1.35922e-12
1.42697e-12
1.49727e-12
1.5702e-12
1.64583e-12
1.72424e-12
1.80551e-12
1.88973e-12
1.97697e-12
2.06732e-12
2.16087e-12
2.25772e-12
2.35795e-12
2.46166e-12
2.56895e-12
2.67992e-12
2.79467e-12
2.91332e-12
3.03596e-12
3.16272e-12
3.2937e-12
3.42902e-12
3.56881e-12
3.71319e-12
3.86229e-12
4.01624e-12
4.17517e-12
4.33922e-12
4.50854e-12
4.68326e-12
4.86355e-12
5.04955e-12
5.24142e-12
5.43932e-12
5.64343e-12
5.8539e-12
6.07092e-12
6.29467e-12
6.52533e-12
6.76308e-12
7.00814e-12
7.26068e-12
7.52093e-12
7.78909e-12
8.06537e-12
8.35001e-12
8.64322e-12
8.94524e-12
9.25631e-12
9.57667e-12
9.90658e-12
1.02463e-11
1.05961e-11
1.09562e-11
1.1327e-11
1.17087e-11
1.21015e-11
1.25059e-11
1.29221e-11
1.33505e-11
1.37913e-11
1.42449e-11
1.47116e-11
1.51918e-11
1.56859e-11
1.61941e-11
1.6717e-11
1.72549e-11
1.78081e-11
1.83771e-11
1.89623e-11
1.95642e-11
2.01831e-11
2.08195e-11
2.14739e-11
2.21468e-11
2.28386e-11
2.35498e-11
2.42809e-11
2.50325e-11
2.58051e-11
2.65992e-11
2.74154e-11
2.82543e-11
2.91164e-11
3.00023e-11
3.09127e-11
3.18482e-11
3.28093e-11
3.37969e-11
3.48115e-11
3.58539e-11
3.69247e-11
3.80246e-11
3.91545e-11
4.0315e-11
4.15069e-11
4.2731e-11
4.39882e-11
4.52792e-11
4.66049e-11
4.79661e-11
4.93638e-11
5.07987e-11
5.2272e-11
5.37844e-11
5.5337e-11
5.69308e-11
5.85666e-11
6.02457e-11
6.1969e-11
6.37375e-11
6.55525e-11
6.7415e-11
6.93261e-11
7.1287e-11
7.3299e-11
7.53631e-11
7.74808e-11
7.96532e-11
8.18816e-11
8.41673e-11
8.65118e-11
8.89163e-11
9.13823e-11
9.39112e-11
9.65044e-11
9.91636e-11
1.0189e-10
1.04686e-10
1.07551e-10
1.1049e-10
1.13501e-10
1.16589e-10
1.19753e-10
1.22996e-10
1.2632e-10
1.29727e-10
1.33218e-10
1.36794e-10
1.40459e-10
1.44215e-10
1.48062e-10
1.52003e-10
1.5604e-10
1.60175e-10
1.64411e-10
1.68749e-10
1.73192e-10
1.77742e-10
1.82401e-10
1.87172e-10
1.92056e-10
1.97057e-10
2.02176e-10
2.07417e-10
2.12782e-10
2.18273e-10
2.23893e-10
2.29644e-10
2.3553e-10
2.41553e-10
2.47715e-10
2.54021e-10
2.60472e-10
2.67071e-10
2.73822e-10
2.80727e-10
2.8779e-10
2.95014e-10
3.02401e-10
3.09955e-10
3.17679e-10
3.25577e-10
3.33652e-10
3.41907e-10
3.50345e-10
3.58971e-10
3.67787e-10
3.76798e-10
3.86006e-10
3.95416e-10
4.05031e-10
4.14855e-10
4.24892e-10
4.35146e-10
4.45621e-10
4.5632e-10
4.67247e-10
4.78408e-10
4.89805e-10
5.01443e-10
5.13326e-10
5.25459e-10
5.37845e-10
5.5049e-10
5.63396e-10
5.7657e-10
5.90016e-10
6.03737e-10
6.17738e-10
6.32025e-10
6.46602e-10
6.61474e-10
6.76644e-10
6.92119e-10
7.07903e-10
7.24001e-10
7.40418e-10
7.57158e-10
7.74228e-10
7.91632e-10
8.09374e-10
8.27461e-10
8.45897e-10
8.64688e-10
8.83839e-10
9.03356e-10
9.23242e-10
9.43505e-10
9.64149e-10
9.8518e-10
1.0066e-09
1.02842e-09
1.05065e-09
1.07328e-09
1.09633e-09
1.1198e-09
1.14369e-09
1.16801e-09
1.19277e-09
1.21798e-09
1.24363e-09
1.26974e-09
1.2963e-09
1.32333e-09
1.35084e-09
1.37882e-09
1.40728e-09
1.43623e-09
1.46568e-09
1.49562e-09
1.52608e-09
1.55704e-09
1.58852e-09
1.62053e-09
1.65306e-09
1.68613e-09
1.71974e-09
1.7539e-09
1.78861e-09
1.82387e-09
1.8597e-09
1.8961e-09
1.93308e-09
1.97063e-09
2.00877e-09
2.0475e-09
2.08683e-09
2.12676e-09
2.16729e-09
2.20844e-09
2.25021e-09
2.2926e-09
2.33562e-09
2.37927e-09
2.42356e-09
2.4685e-09
2.51408e-09
2.56031e-09
2.6072e-09
2.65475e-09
2.70297e-09
2.75185e-09
2.80141e-09
2.85165e-09
2.90257e-09
2.95418e-09
3.00647e-09
3.05945e-09
3.11313e-09
3.16751e-09
3.22259e-09
3.27837e-09
3.33486e-09
3.39205e-09
3.44995e-09
3.50856e-09
3.56788e-09
3.62791e-09
3.68865e-09
3.7501e-09
3.81226e-09
3.87513e-09
3.9387e-09
4.00298e-09
4.06796e-09
4.13364e-09
4.20001e-09
4.26706e-09
4.3348e-09
4.4032e-09
4.47228e-09
4.54201e-09
4.61238e-09
4.68338e-09
4.755e-09
4.82722e-09
4.90003e-09
4.97341e-09
5.04733e-09
5.12176e-09
5.1967e-09
5.27209e-09
5.34792e-09
5.42415e-09
5.50073e-09
5.57762e-09
5.65478e-09
5.73215e-09
5.80967e-09
5.88727e-09
5.96489e-09
6.04245e-09
6.11985e-09
6.19701e-09
6.27381e-09
6.35015e-09
6.42589e-09
6.50089e-09
6.57501e-09
6.64807e-09
6.71988e-09
6.79024e-09
6.85893e-09
6.92571e-09
6.9903e-09
7.05241e-09
7.11171e-09
7.16787e-09
7.2205e-09
7.26919e-09
7.31351e-09
7.35297e-09
7.38709e-09
7.41535e-09
7.43724e-09
7.45224e-09
7.45991e-09
2.00616e-15
6.43129e-15
1.1316e-14
1.66533e-14
2.24428e-14
2.86979e-14
3.5436e-14
4.26768e-14
5.04434e-14
5.8761e-14
6.76567e-14
7.71592e-14
8.72982e-14
9.81045e-14
1.0961e-13
1.21846e-13
1.34847e-13
1.48645e-13
1.63275e-13
1.78771e-13
1.9517e-13
2.12506e-13
2.30816e-13
2.50137e-13
2.70508e-13
2.91968e-13
3.14555e-13
3.3831e-13
3.63275e-13
3.89492e-13
4.17004e-13
4.45855e-13
4.7609e-13
5.07755e-13
5.40898e-13
5.75567e-13
6.11811e-13
6.49681e-13
6.89228e-13
7.30506e-13
7.7357e-13
8.18474e-13
8.65275e-13
9.14032e-13
9.64805e-13
1.01765e-12
1.07264e-12
1.12984e-12
1.1893e-12
1.2511e-12
1.3153e-12
1.38198e-12
1.45122e-12
1.52307e-12
1.59763e-12
1.67497e-12
1.75516e-12
1.8383e-12
1.92447e-12
2.01374e-12
2.10622e-12
2.202e-12
2.30116e-12
2.40381e-12
2.51004e-12
2.61995e-12
2.73365e-12
2.85125e-12
2.97285e-12
3.09857e-12
3.22853e-12
3.36283e-12
3.50161e-12
3.64498e-12
3.79309e-12
3.94605e-12
4.104e-12
4.26709e-12
4.43545e-12
4.60924e-12
4.78859e-12
4.97367e-12
5.16464e-12
5.36166e-12
5.56488e-12
5.7745e-12
5.99068e-12
6.2136e-12
6.44344e-12
6.68041e-12
6.92469e-12
7.17648e-12
7.436e-12
7.70344e-12
7.97904e-12
8.26301e-12
8.55557e-12
8.85697e-12
9.16745e-12
9.48725e-12
9.81662e-12
1.01558e-11
1.05051e-11
1.08648e-11
1.12352e-11
1.16165e-11
1.2009e-11
1.2413e-11
1.2829e-11
1.32571e-11
1.36977e-11
1.41511e-11
1.46177e-11
1.50978e-11
1.55919e-11
1.61001e-11
1.66231e-11
1.7161e-11
1.77144e-11
1.82837e-11
1.88692e-11
1.94714e-11
2.00907e-11
2.07276e-11
2.13825e-11
2.2056e-11
2.27485e-11
2.34604e-11
2.41924e-11
2.49449e-11
2.57185e-11
2.65137e-11
2.7331e-11
2.81711e-11
2.90346e-11
2.9922e-11
3.08339e-11
3.17711e-11
3.2734e-11
3.37235e-11
3.47401e-11
3.57846e-11
3.68577e-11
3.796e-11
3.90924e-11
4.02556e-11
4.14504e-11
4.26775e-11
4.39378e-11
4.52321e-11
4.65613e-11
4.79262e-11
4.93278e-11
5.07668e-11
5.22443e-11
5.37612e-11
5.53185e-11
5.69172e-11
5.85582e-11
6.02426e-11
6.19716e-11
6.3746e-11
6.55672e-11
6.74361e-11
6.93539e-11
7.13219e-11
7.33412e-11
7.5413e-11
7.75387e-11
7.97194e-11
8.19565e-11
8.42513e-11
8.66052e-11
8.90195e-11
9.14958e-11
9.40354e-11
9.66397e-11
9.93104e-11
1.02049e-10
1.04857e-10
1.07736e-10
1.10688e-10
1.13713e-10
1.16815e-10
1.19995e-10
1.23254e-10
1.26594e-10
1.30018e-10
1.33526e-10
1.37122e-10
1.40806e-10
1.4458e-10
1.48448e-10
1.5241e-10
1.5647e-10
1.60628e-10
1.64887e-10
1.6925e-10
1.73719e-10
1.78295e-10
1.82981e-10
1.8778e-10
1.92694e-10
1.97725e-10
2.02876e-10
2.0815e-10
2.13548e-10
2.19074e-10
2.2473e-10
2.30519e-10
2.36444e-10
2.42507e-10
2.48711e-10
2.55059e-10
2.61554e-10
2.682e-10
2.74998e-10
2.81952e-10
2.89066e-10
2.96341e-10
3.03783e-10
3.11393e-10
3.19175e-10
3.27132e-10
3.35268e-10
3.43587e-10
3.52091e-10
3.60785e-10
3.69671e-10
3.78753e-10
3.88036e-10
3.97523e-10
4.07218e-10
4.17124e-10
4.27245e-10
4.37586e-10
4.4815e-10
4.58942e-10
4.69965e-10
4.81223e-10
4.92722e-10
5.04464e-10
5.16455e-10
5.28698e-10
5.41199e-10
5.53961e-10
5.66989e-10
5.80287e-10
5.93861e-10
6.07714e-10
6.21852e-10
6.36279e-10
6.51e-10
6.66019e-10
6.81343e-10
6.96975e-10
7.1292e-10
7.29184e-10
7.45771e-10
7.62688e-10
7.79938e-10
7.97527e-10
8.1546e-10
8.33743e-10
8.52381e-10
8.71379e-10
8.90743e-10
9.10477e-10
9.30589e-10
9.51082e-10
9.71962e-10
9.93236e-10
1.01491e-09
1.03699e-09
1.05947e-09
1.08238e-09
1.1057e-09
1.12945e-09
1.15364e-09
1.17826e-09
1.20333e-09
1.22885e-09
1.25482e-09
1.28126e-09
1.30816e-09
1.33554e-09
1.3634e-09
1.39175e-09
1.42058e-09
1.44992e-09
1.47976e-09
1.51011e-09
1.54097e-09
1.57236e-09
1.60427e-09
1.63672e-09
1.66971e-09
1.70324e-09
1.73733e-09
1.77197e-09
1.80718e-09
1.84295e-09
1.8793e-09
1.91624e-09
1.95376e-09
1.99187e-09
2.03058e-09
2.06989e-09
2.10981e-09
2.15035e-09
2.19151e-09
2.2333e-09
2.27572e-09
2.31877e-09
2.36247e-09
2.40682e-09
2.45182e-09
2.49748e-09
2.5438e-09
2.59078e-09
2.63845e-09
2.68679e-09
2.73581e-09
2.78551e-09
2.83591e-09
2.88701e-09
2.9388e-09
2.9913e-09
3.0445e-09
3.09841e-09
3.15304e-09
3.20839e-09
3.26445e-09
3.32124e-09
3.37875e-09
3.43699e-09
3.49596e-09
3.55566e-09
3.61609e-09
3.67725e-09
3.73915e-09
3.80178e-09
3.86514e-09
3.92924e-09
3.99407e-09
4.05963e-09
4.12591e-09
4.19292e-09
4.26064e-09
4.32908e-09
4.39823e-09
4.46809e-09
4.53864e-09
4.60987e-09
4.68178e-09
4.75436e-09
4.82759e-09
4.90146e-09
4.97596e-09
5.05105e-09
5.12674e-09
5.20299e-09
5.27977e-09
5.35707e-09
5.43485e-09
5.51308e-09
5.59173e-09
5.67074e-09
5.75008e-09
5.8297e-09
5.90954e-09
5.98954e-09
6.06963e-09
6.14975e-09
6.22981e-09
6.30972e-09
6.38938e-09
6.46869e-09
6.54752e-09
6.62576e-09
6.70325e-09
6.77983e-09
6.85533e-09
6.92957e-09
7.00233e-09
7.07339e-09
7.14248e-09
7.20935e-09
7.27368e-09
7.33514e-09
7.39338e-09
7.44801e-09
7.4986e-09
7.5447e-09
7.58582e-09
7.62143e-09
7.65101e-09
7.67398e-09
7.6898e-09
7.69794e-09
1.9686e-15
6.31566e-15
1.11098e-14
1.63651e-14
2.20892e-14
2.82934e-14
3.49928e-14
4.22059e-14
4.99544e-14
5.82631e-14
6.71587e-14
7.66699e-14
8.68267e-14
9.76599e-14
1.09202e-13
1.21485e-13
1.34542e-13
1.48409e-13
1.63119e-13
1.78707e-13
1.95211e-13
2.12666e-13
2.31109e-13
2.5058e-13
2.71116e-13
2.92759e-13
3.15547e-13
3.39523e-13
3.64729e-13
3.91208e-13
4.19005e-13
4.48164e-13
4.78733e-13
5.10758e-13
5.44289e-13
5.79374e-13
6.16064e-13
6.54412e-13
6.94471e-13
7.36295e-13
7.7994e-13
8.25463e-13
8.72923e-13
9.22379e-13
9.73893e-13
1.02753e-12
1.08335e-12
1.14142e-12
1.20181e-12
1.26459e-12
1.32983e-12
1.3976e-12
1.46797e-12
1.54103e-12
1.61685e-12
1.69552e-12
1.7771e-12
1.8617e-12
1.9494e-12
2.04028e-12
2.13443e-12
2.23196e-12
2.33296e-12
2.43752e-12
2.54574e-12
2.65774e-12
2.77362e-12
2.89348e-12
3.01744e-12
3.14562e-12
3.27814e-12
3.41511e-12
3.55665e-12
3.70291e-12
3.85401e-12
4.01008e-12
4.17127e-12
4.33771e-12
4.50956e-12
4.68695e-12
4.87006e-12
5.05903e-12
5.25402e-12
5.45521e-12
5.66277e-12
5.87686e-12
6.09768e-12
6.3254e-12
6.56022e-12
6.80233e-12
7.05193e-12
7.30923e-12
7.57444e-12
7.84777e-12
8.12944e-12
8.4197e-12
8.71876e-12
9.02687e-12
9.34427e-12
9.67123e-12
1.0008e-11
1.03548e-11
1.0712e-11
1.10798e-11
1.14586e-11
1.18485e-11
1.22499e-11
1.26632e-11
1.30886e-11
1.35265e-11
1.39772e-11
1.4441e-11
1.49184e-11
1.54096e-11
1.5915e-11
1.6435e-11
1.69701e-11
1.75205e-11
1.80867e-11
1.86692e-11
1.92683e-11
1.98845e-11
2.05183e-11
2.11701e-11
2.18403e-11
2.25295e-11
2.32382e-11
2.39669e-11
2.47161e-11
2.54863e-11
2.6278e-11
2.70919e-11
2.79286e-11
2.87885e-11
2.96724e-11
3.05807e-11
3.15142e-11
3.24736e-11
3.34593e-11
3.44723e-11
3.5513e-11
3.65823e-11
3.76809e-11
3.88095e-11
3.99688e-11
4.11597e-11
4.23829e-11
4.36393e-11
4.49297e-11
4.6255e-11
4.76159e-11
4.90135e-11
5.04485e-11
5.1922e-11
5.34349e-11
5.49882e-11
5.65828e-11
5.82198e-11
5.99003e-11
6.16252e-11
6.33956e-11
6.52128e-11
6.70777e-11
6.89916e-11
7.09557e-11
7.2971e-11
7.5039e-11
7.71608e-11
7.93377e-11
8.15711e-11
8.38622e-11
8.62125e-11
8.86233e-11
9.10961e-11
9.36322e-11
9.62333e-11
9.89008e-11
1.01636e-10
1.04441e-10
1.07317e-10
1.10266e-10
1.13289e-10
1.16389e-10
1.19566e-10
1.22823e-10
1.26161e-10
1.29583e-10
1.3309e-10
1.36683e-10
1.40366e-10
1.4414e-10
1.48007e-10
1.51969e-10
1.56028e-10
1.60186e-10
1.64446e-10
1.6881e-10
1.73279e-10
1.77857e-10
1.82545e-10
1.87346e-10
1.92262e-10
1.97297e-10
2.02451e-10
2.07728e-10
2.13131e-10
2.18662e-10
2.24324e-10
2.30118e-10
2.3605e-10
2.4212e-10
2.48332e-10
2.54689e-10
2.61193e-10
2.67848e-10
2.74657e-10
2.81623e-10
2.88749e-10
2.96037e-10
3.03493e-10
3.11118e-10
3.18915e-10
3.2689e-10
3.35044e-10
3.43381e-10
3.51905e-10
3.6062e-10
3.69528e-10
3.78635e-10
3.87942e-10
3.97455e-10
4.07177e-10
4.17112e-10
4.27264e-10
4.37637e-10
4.48234e-10
4.59061e-10
4.70121e-10
4.81418e-10
4.92957e-10
5.04741e-10
5.16776e-10
5.29065e-10
5.41614e-10
5.54426e-10
5.67507e-10
5.8086e-10
5.9449e-10
6.08403e-10
6.22602e-10
6.37094e-10
6.51881e-10
6.66971e-10
6.82366e-10
6.98073e-10
7.14097e-10
7.30442e-10
7.47114e-10
7.64118e-10
7.81458e-10
7.99142e-10
8.17173e-10
8.35557e-10
8.543e-10
8.73407e-10
8.92883e-10
9.12734e-10
9.32966e-10
9.53584e-10
9.74594e-10
9.96002e-10
1.01781e-09
1.04003e-09
1.06267e-09
1.08572e-09
1.10921e-09
1.13312e-09
1.15747e-09
1.18227e-09
1.20752e-09
1.23322e-09
1.25939e-09
1.28602e-09
1.31313e-09
1.34072e-09
1.36879e-09
1.39736e-09
1.42643e-09
1.456e-09
1.48608e-09
1.51668e-09
1.5478e-09
1.57946e-09
1.61164e-09
1.64437e-09
1.67765e-09
1.71148e-09
1.74587e-09
1.78083e-09
1.81636e-09
1.85247e-09
1.88916e-09
1.92644e-09
1.96432e-09
2.0028e-09
2.04189e-09
2.0816e-09
2.12192e-09
2.16287e-09
2.20445e-09
2.24667e-09
2.28954e-09
2.33305e-09
2.37721e-09
2.42204e-09
2.46753e-09
2.51369e-09
2.56053e-09
2.60805e-09
2.65625e-09
2.70515e-09
2.75474e-09
2.80503e-09
2.85603e-09
2.90773e-09
2.96016e-09
3.01329e-09
3.06716e-09
3.12174e-09
3.17706e-09
3.23311e-09
3.2899e-09
3.34742e-09
3.40569e-09
3.46471e-09
3.52447e-09
3.58498e-09
3.64624e-09
3.70825e-09
3.77102e-09
3.83454e-09
3.89881e-09
3.96384e-09
4.02962e-09
4.09616e-09
4.16344e-09
4.23147e-09
4.30024e-09
4.36976e-09
4.44001e-09
4.51099e-09
4.58269e-09
4.65511e-09
4.72824e-09
4.80206e-09
4.87657e-09
4.95176e-09
5.0276e-09
5.10408e-09
5.18119e-09
5.25891e-09
5.33721e-09
5.41606e-09
5.49545e-09
5.57534e-09
5.65569e-09
5.73647e-09
5.81764e-09
5.89916e-09
5.98096e-09
6.063e-09
6.14522e-09
6.22754e-09
6.3099e-09
6.39221e-09
6.47438e-09
6.55631e-09
6.63789e-09
6.71901e-09
6.79952e-09
6.87929e-09
6.95816e-09
7.03594e-09
7.11244e-09
7.18746e-09
7.26076e-09
7.33208e-09
7.40114e-09
7.46764e-09
7.53124e-09
7.59158e-09
7.64824e-09
7.7008e-09
7.74879e-09
7.79168e-09
7.82895e-09
7.86001e-09
7.88424e-09
7.90103e-09
7.90974e-09
1.93125e-15
6.19451e-15
1.0889e-14
1.6039e-14
2.1662e-14
2.77731e-14
3.43887e-14
4.15276e-14
4.92114e-14
5.74644e-14
6.63131e-14
7.57858e-14
8.59123e-14
9.67236e-14
1.08252e-13
1.20529e-13
1.3359e-13
1.47469e-13
1.622e-13
1.77819e-13
1.94363e-13
2.11869e-13
2.30375e-13
2.4992e-13
2.70543e-13
2.92285e-13
3.15187e-13
3.39291e-13
3.64641e-13
3.91281e-13
4.19255e-13
4.48611e-13
4.79396e-13
5.11657e-13
5.45445e-13
5.80811e-13
6.17806e-13
6.56483e-13
6.96897e-13
7.39103e-13
7.83159e-13
8.29123e-13
8.77055e-13
9.27016e-13
9.79068e-13
1.03328e-12
1.08971e-12
1.14843e-12
1.20951e-12
1.27301e-12
1.33902e-12
1.40761e-12
1.47885e-12
1.55282e-12
1.6296e-12
1.70927e-12
1.79193e-12
1.87764e-12
1.96651e-12
2.05862e-12
2.15407e-12
2.25296e-12
2.35537e-12
2.46142e-12
2.5712e-12
2.68483e-12
2.8024e-12
2.92404e-12
3.04986e-12
3.17997e-12
3.3145e-12
3.45357e-12
3.5973e-12
3.74584e-12
3.89931e-12
4.05784e-12
4.22159e-12
4.3907e-12
4.56532e-12
4.74559e-12
4.93168e-12
5.12375e-12
5.32196e-12
5.52649e-12
5.73751e-12
5.95519e-12
6.17972e-12
6.41129e-12
6.6501e-12
6.89634e-12
7.15022e-12
7.41194e-12
7.68173e-12
7.9598e-12
8.24638e-12
8.54169e-12
8.84599e-12
9.15952e-12
9.48252e-12
9.81526e-12
1.0158e-11
1.0511e-11
1.08746e-11
1.12489e-11
1.16345e-11
1.20314e-11
1.24401e-11
1.28608e-11
1.3294e-11
1.37398e-11
1.41987e-11
1.4671e-11
1.5157e-11
1.56572e-11
1.61719e-11
1.67015e-11
1.72463e-11
1.78069e-11
1.83836e-11
1.89768e-11
1.9587e-11
2.02147e-11
2.08602e-11
2.15241e-11
2.22068e-11
2.29089e-11
2.36308e-11
2.43731e-11
2.51363e-11
2.59209e-11
2.67276e-11
2.75568e-11
2.84092e-11
2.92853e-11
3.01858e-11
3.11113e-11
3.20625e-11
3.30399e-11
3.40444e-11
3.50765e-11
3.6137e-11
3.72266e-11
3.83461e-11
3.94961e-11
4.06775e-11
4.18911e-11
4.31377e-11
4.44181e-11
4.57331e-11
4.70837e-11
4.84707e-11
4.9895e-11
5.13576e-11
5.28593e-11
5.44013e-11
5.59844e-11
5.76097e-11
5.92782e-11
6.0991e-11
6.27491e-11
6.45537e-11
6.64059e-11
6.83069e-11
7.02578e-11
7.22598e-11
7.43142e-11
7.64222e-11
7.85851e-11
8.08042e-11
8.30809e-11
8.54165e-11
8.78125e-11
9.02701e-11
9.2791e-11
9.53765e-11
9.80282e-11
1.00748e-10
1.03536e-10
1.06396e-10
1.09328e-10
1.12335e-10
1.15417e-10
1.18577e-10
1.21817e-10
1.25137e-10
1.28541e-10
1.3203e-10
1.35605e-10
1.3927e-10
1.43025e-10
1.46873e-10
1.50816e-10
1.54856e-10
1.58995e-10
1.63235e-10
1.67579e-10
1.72028e-10
1.76586e-10
1.81254e-10
1.86035e-10
1.90931e-10
1.95945e-10
2.01079e-10
2.06335e-10
2.11717e-10
2.17227e-10
2.22868e-10
2.28642e-10
2.34552e-10
2.40601e-10
2.46792e-10
2.53127e-10
2.59611e-10
2.66245e-10
2.73033e-10
2.79978e-10
2.87083e-10
2.94351e-10
3.01785e-10
3.0939e-10
3.17167e-10
3.25121e-10
3.33255e-10
3.41573e-10
3.50078e-10
3.58773e-10
3.67663e-10
3.7675e-10
3.8604e-10
3.95535e-10
4.05239e-10
4.15157e-10
4.25293e-10
4.35649e-10
4.46232e-10
4.57043e-10
4.68089e-10
4.79372e-10
4.90898e-10
5.02671e-10
5.14694e-10
5.26973e-10
5.39512e-10
5.52316e-10
5.65388e-10
5.78735e-10
5.9236e-10
6.06268e-10
6.20464e-10
6.34953e-10
6.4974e-10
6.6483e-10
6.80227e-10
6.95938e-10
7.11966e-10
7.28318e-10
7.44998e-10
7.62012e-10
7.79364e-10
7.97061e-10
8.15108e-10
8.3351e-10
8.52272e-10
8.71401e-10
8.90901e-10
9.10779e-10
9.3104e-10
9.51689e-10
9.72734e-10
9.94178e-10
1.01603e-09
1.03829e-09
1.06097e-09
1.08408e-09
1.10761e-09
1.13158e-09
1.15599e-09
1.18085e-09
1.20616e-09
1.23194e-09
1.25817e-09
1.28489e-09
1.31208e-09
1.33975e-09
1.36792e-09
1.39658e-09
1.42574e-09
1.45542e-09
1.48561e-09
1.51632e-09
1.54757e-09
1.57934e-09
1.61166e-09
1.64452e-09
1.67794e-09
1.71192e-09
1.74646e-09
1.78158e-09
1.81728e-09
1.85356e-09
1.89043e-09
1.9279e-09
1.96597e-09
2.00465e-09
2.04395e-09
2.08387e-09
2.12442e-09
2.1656e-09
2.20742e-09
2.24989e-09
2.29301e-09
2.33678e-09
2.38123e-09
2.42633e-09
2.47212e-09
2.51858e-09
2.56573e-09
2.61357e-09
2.66211e-09
2.71135e-09
2.7613e-09
2.81195e-09
2.86333e-09
2.91542e-09
2.96825e-09
3.0218e-09
3.07608e-09
3.13111e-09
3.18688e-09
3.24339e-09
3.30066e-09
3.35867e-09
3.41745e-09
3.47698e-09
3.53728e-09
3.59835e-09
3.66017e-09
3.72277e-09
3.78614e-09
3.85028e-09
3.91519e-09
3.98087e-09
4.04733e-09
4.11456e-09
4.18255e-09
4.25132e-09
4.32085e-09
4.39114e-09
4.46219e-09
4.534e-09
4.60655e-09
4.67985e-09
4.75388e-09
4.82864e-09
4.90411e-09
4.98029e-09
5.05715e-09
5.1347e-09
5.21291e-09
5.29176e-09
5.37123e-09
5.45131e-09
5.53196e-09
5.61316e-09
5.69487e-09
5.77707e-09
5.85972e-09
5.94277e-09
6.02618e-09
6.1099e-09
6.19387e-09
6.27804e-09
6.36232e-09
6.44665e-09
6.53095e-09
6.61512e-09
6.69907e-09
6.78268e-09
6.86583e-09
6.94839e-09
7.03022e-09
7.11114e-09
7.19099e-09
7.26957e-09
7.34666e-09
7.42203e-09
7.49542e-09
7.56655e-09
7.6351e-09
7.70074e-09
7.76309e-09
7.82173e-09
7.87623e-09
7.9261e-09
7.97079e-09
8.00975e-09
8.04234e-09
8.0679e-09
8.08572e-09
8.09502e-09
1.89597e-15
6.07955e-15
1.06798e-14
1.57234e-14
2.12346e-14
2.72339e-14
3.37415e-14
4.07784e-14
4.83676e-14
5.65338e-14
6.53038e-14
7.47058e-14
8.47694e-14
9.55253e-14
1.07005e-13
1.19242e-13
1.3227e-13
1.46122e-13
1.60834e-13
1.76441e-13
1.92981e-13
2.10491e-13
2.29009e-13
2.48575e-13
2.69228e-13
2.91009e-13
3.13961e-13
3.38127e-13
3.6355e-13
3.90275e-13
4.18348e-13
4.47817e-13
4.78728e-13
5.11133e-13
5.45081e-13
5.80623e-13
6.17813e-13
6.56704e-13
6.97353e-13
7.39815e-13
7.84149e-13
8.30415e-13
8.78672e-13
9.28985e-13
9.81415e-13
1.03603e-12
1.09289e-12
1.15208e-12
1.21365e-12
1.27769e-12
1.34426e-12
1.41344e-12
1.48532e-12
1.55996e-12
1.63745e-12
1.71788e-12
1.80132e-12
1.88788e-12
1.97763e-12
2.07067e-12
2.1671e-12
2.26701e-12
2.3705e-12
2.47768e-12
2.58865e-12
2.70352e-12
2.8224e-12
2.9454e-12
3.07265e-12
3.20425e-12
3.34033e-12
3.48102e-12
3.62645e-12
3.77675e-12
3.93206e-12
4.09252e-12
4.25826e-12
4.42945e-12
4.60623e-12
4.78875e-12
4.97718e-12
5.17168e-12
5.37241e-12
5.57955e-12
5.79329e-12
6.01379e-12
6.24125e-12
6.47585e-12
6.7178e-12
6.9673e-12
7.22455e-12
7.48978e-12
7.76318e-12
8.045e-12
8.33545e-12
8.63478e-12
8.94323e-12
9.26105e-12
9.58849e-12
9.92582e-12
1.02733e-11
1.06312e-11
1.09998e-11
1.13794e-11
1.17704e-11
1.21729e-11
1.25873e-11
1.3014e-11
1.34533e-11
1.39055e-11
1.43709e-11
1.48499e-11
1.53429e-11
1.58503e-11
1.63723e-11
1.69096e-11
1.74623e-11
1.8031e-11
1.8616e-11
1.92179e-11
1.9837e-11
2.04738e-11
2.11287e-11
2.18023e-11
2.24951e-11
2.32074e-11
2.394e-11
2.46932e-11
2.54676e-11
2.62638e-11
2.70824e-11
2.79239e-11
2.87889e-11
2.9678e-11
3.05919e-11
3.15312e-11
3.24966e-11
3.34886e-11
3.45081e-11
3.55556e-11
3.6632e-11
3.77379e-11
3.88742e-11
4.00415e-11
4.12407e-11
4.24726e-11
4.3738e-11
4.50377e-11
4.63726e-11
4.77436e-11
4.91516e-11
5.05974e-11
5.20822e-11
5.36068e-11
5.51721e-11
5.67793e-11
5.84293e-11
6.01233e-11
6.18622e-11
6.36472e-11
6.54793e-11
6.73599e-11
6.92899e-11
7.12707e-11
7.33034e-11
7.53893e-11
7.75297e-11
7.97258e-11
8.19791e-11
8.42908e-11
8.66624e-11
8.90953e-11
9.15909e-11
9.41507e-11
9.67762e-11
9.94689e-11
1.0223e-10
1.05062e-10
1.07966e-10
1.10944e-10
1.13997e-10
1.17128e-10
1.20337e-10
1.23627e-10
1.26999e-10
1.30456e-10
1.33999e-10
1.3763e-10
1.41352e-10
1.45166e-10
1.49074e-10
1.53079e-10
1.57182e-10
1.61386e-10
1.65693e-10
1.70105e-10
1.74625e-10
1.79254e-10
1.83996e-10
1.88852e-10
1.93825e-10
1.98918e-10
2.04133e-10
2.09473e-10
2.1494e-10
2.20537e-10
2.26267e-10
2.32133e-10
2.38137e-10
2.44282e-10
2.50571e-10
2.57008e-10
2.63595e-10
2.70335e-10
2.77231e-10
2.84286e-10
2.91505e-10
2.98889e-10
3.06443e-10
3.14169e-10
3.22071e-10
3.30153e-10
3.38418e-10
3.46869e-10
3.5551e-10
3.64346e-10
3.73378e-10
3.82613e-10
3.92052e-10
4.017e-10
4.11562e-10
4.2164e-10
4.3194e-10
4.42464e-10
4.53218e-10
4.64205e-10
4.7543e-10
4.86897e-10
4.98611e-10
5.10575e-10
5.22794e-10
5.35274e-10
5.48017e-10
5.6103e-10
5.74317e-10
5.87882e-10
6.0173e-10
6.15866e-10
6.30295e-10
6.45022e-10
6.60052e-10
6.7539e-10
6.91042e-10
7.07011e-10
7.23304e-10
7.39926e-10
7.56881e-10
7.74177e-10
7.91816e-10
8.09807e-10
8.28153e-10
8.4686e-10
8.65934e-10
8.85381e-10
9.05206e-10
9.25415e-10
9.46014e-10
9.67008e-10
9.88404e-10
1.01021e-09
1.03242e-09
1.05506e-09
1.07812e-09
1.10161e-09
1.12554e-09
1.14991e-09
1.17474e-09
1.20001e-09
1.22575e-09
1.25196e-09
1.27864e-09
1.30581e-09
1.33346e-09
1.3616e-09
1.39024e-09
1.41939e-09
1.44905e-09
1.47923e-09
1.50994e-09
1.54118e-09
1.57295e-09
1.60527e-09
1.63814e-09
1.67156e-09
1.70556e-09
1.74012e-09
1.77525e-09
1.81097e-09
1.84728e-09
1.88419e-09
1.92169e-09
1.95981e-09
1.99854e-09
2.03789e-09
2.07786e-09
2.11848e-09
2.15973e-09
2.20162e-09
2.24417e-09
2.28737e-09
2.33124e-09
2.37578e-09
2.421e-09
2.46689e-09
2.51348e-09
2.56076e-09
2.60873e-09
2.65741e-09
2.7068e-09
2.7569e-09
2.80773e-09
2.85928e-09
2.91155e-09
2.96457e-09
3.01832e-09
3.07282e-09
3.12807e-09
3.18407e-09
3.24083e-09
3.29834e-09
3.35663e-09
3.41568e-09
3.4755e-09
3.5361e-09
3.59747e-09
3.65963e-09
3.72256e-09
3.78628e-09
3.85079e-09
3.91608e-09
3.98216e-09
4.04903e-09
4.11669e-09
4.18513e-09
4.25435e-09
4.32437e-09
4.39516e-09
4.46673e-09
4.53908e-09
4.6122e-09
4.68608e-09
4.76072e-09
4.83611e-09
4.91225e-09
4.98911e-09
5.0667e-09
5.145e-09
5.22399e-09
5.30365e-09
5.38398e-09
5.46495e-09
5.54653e-09
5.62871e-09
5.71145e-09
5.79472e-09
5.8785e-09
5.96274e-09
6.0474e-09
6.13243e-09
6.21779e-09
6.30342e-09
6.38926e-09
6.47523e-09
6.56126e-09
6.64728e-09
6.73319e-09
6.81888e-09
6.90425e-09
6.98918e-09
7.07353e-09
7.15716e-09
7.2399e-09
7.32158e-09
7.402e-09
7.48094e-09
7.55817e-09
7.63343e-09
7.70643e-09
7.77685e-09
7.84436e-09
7.90857e-09
7.96907e-09
8.02539e-09
8.07703e-09
8.12345e-09
8.16403e-09
8.1981e-09
8.22496e-09
8.24378e-09
8.25369e-09
1.86475e-15
5.97743e-15
1.04939e-14
1.54407e-14
2.08449e-14
2.6732e-14
3.31262e-14
4.00519e-14
4.75344e-14
5.55999e-14
6.42757e-14
7.35904e-14
8.35737e-14
9.42561e-14
1.05669e-13
1.17845e-13
1.30818e-13
1.44621e-13
1.5929e-13
1.7486e-13
1.91368e-13
2.08852e-13
2.27351e-13
2.46903e-13
2.6755e-13
2.89332e-13
3.12292e-13
3.36474e-13
3.61922e-13
3.88681e-13
4.16798e-13
4.4632e-13
4.77297e-13
5.09778e-13
5.43815e-13
5.79459e-13
6.16765e-13
6.55787e-13
6.96581e-13
7.39205e-13
7.83717e-13
8.30179e-13
8.78652e-13
9.29198e-13
9.81884e-13
1.03677e-12
1.09394e-12
1.15344e-12
1.21536e-12
1.27977e-12
1.34674e-12
1.41635e-12
1.48867e-12
1.5638e-12
1.6418e-12
1.72277e-12
1.80679e-12
1.89396e-12
1.98436e-12
2.07808e-12
2.17523e-12
2.2759e-12
2.3802e-12
2.48822e-12
2.60007e-12
2.71587e-12
2.83572e-12
2.95975e-12
3.08806e-12
3.22078e-12
3.35804e-12
3.49995e-12
3.64667e-12
3.79831e-12
3.95501e-12
4.11692e-12
4.28419e-12
4.45696e-12
4.63539e-12
4.81963e-12
5.00984e-12
5.20619e-12
5.40886e-12
5.61801e-12
5.83383e-12
6.0565e-12
6.28621e-12
6.52315e-12
6.76752e-12
7.01953e-12
7.27939e-12
7.54731e-12
7.82351e-12
8.10822e-12
8.40168e-12
8.70411e-12
9.01578e-12
9.33692e-12
9.66781e-12
1.00087e-11
1.03599e-11
1.07216e-11
1.10941e-11
1.14778e-11
1.18729e-11
1.22798e-11
1.26987e-11
1.31301e-11
1.35741e-11
1.40312e-11
1.45017e-11
1.4986e-11
1.54844e-11
1.59974e-11
1.65252e-11
1.70684e-11
1.76273e-11
1.82023e-11
1.87939e-11
1.94025e-11
2.00285e-11
2.06725e-11
2.13348e-11
2.2016e-11
2.27166e-11
2.3437e-11
2.41779e-11
2.49397e-11
2.57229e-11
2.65282e-11
2.73561e-11
2.82073e-11
2.90822e-11
2.99815e-11
3.09059e-11
3.1856e-11
3.28325e-11
3.3836e-11
3.48673e-11
3.59269e-11
3.70158e-11
3.81346e-11
3.92841e-11
4.0465e-11
4.16782e-11
4.29244e-11
4.42046e-11
4.55195e-11
4.687e-11
4.82571e-11
4.96816e-11
5.11445e-11
5.26467e-11
5.41893e-11
5.57731e-11
5.73993e-11
5.90688e-11
6.07828e-11
6.25423e-11
6.43484e-11
6.62024e-11
6.81052e-11
7.00582e-11
7.20626e-11
7.41196e-11
7.62304e-11
7.83963e-11
8.06187e-11
8.2899e-11
8.52384e-11
8.76384e-11
9.01005e-11
9.26261e-11
9.52167e-11
9.78738e-11
1.00599e-10
1.03394e-10
1.0626e-10
1.09199e-10
1.12213e-10
1.15303e-10
1.18471e-10
1.21719e-10
1.25049e-10
1.28463e-10
1.31962e-10
1.35548e-10
1.39224e-10
1.42991e-10
1.46851e-10
1.50807e-10
1.54861e-10
1.59014e-10
1.6327e-10
1.6763e-10
1.72096e-10
1.76671e-10
1.81358e-10
1.86158e-10
1.91074e-10
1.96108e-10
2.01264e-10
2.06544e-10
2.1195e-10
2.17485e-10
2.23151e-10
2.28952e-10
2.34891e-10
2.40969e-10
2.47191e-10
2.53559e-10
2.60076e-10
2.66745e-10
2.73569e-10
2.80551e-10
2.87695e-10
2.95004e-10
3.02481e-10
3.1013e-10
3.17953e-10
3.25955e-10
3.34138e-10
3.42507e-10
3.51065e-10
3.59816e-10
3.68763e-10
3.7791e-10
3.87261e-10
3.96821e-10
4.06592e-10
4.16578e-10
4.26785e-10
4.37216e-10
4.47874e-10
4.58766e-10
4.69893e-10
4.81262e-10
4.92876e-10
5.04739e-10
5.16857e-10
5.29233e-10
5.41873e-10
5.54781e-10
5.67961e-10
5.81419e-10
5.95159e-10
6.09186e-10
6.23506e-10
6.38122e-10
6.5304e-10
6.68265e-10
6.83802e-10
6.99657e-10
7.15835e-10
7.3234e-10
7.49179e-10
7.66356e-10
7.83877e-10
8.01748e-10
8.19974e-10
8.38561e-10
8.57514e-10
8.76839e-10
8.96542e-10
9.16628e-10
9.37104e-10
9.57974e-10
9.79246e-10
1.00093e-09
1.02302e-09
1.04553e-09
1.06846e-09
1.09183e-09
1.11564e-09
1.13988e-09
1.16458e-09
1.18974e-09
1.21535e-09
1.24144e-09
1.268e-09
1.29504e-09
1.32256e-09
1.35059e-09
1.37911e-09
1.40814e-09
1.43768e-09
1.46774e-09
1.49833e-09
1.52945e-09
1.56111e-09
1.59332e-09
1.62607e-09
1.65939e-09
1.69327e-09
1.72773e-09
1.76276e-09
1.79838e-09
1.83458e-09
1.87139e-09
1.9088e-09
1.94682e-09
1.98546e-09
2.02472e-09
2.06462e-09
2.10515e-09
2.14632e-09
2.18814e-09
2.23061e-09
2.27375e-09
2.31756e-09
2.36204e-09
2.4072e-09
2.45304e-09
2.49958e-09
2.54681e-09
2.59475e-09
2.6434e-09
2.69276e-09
2.74284e-09
2.79365e-09
2.84519e-09
2.89746e-09
2.95048e-09
3.00424e-09
3.05876e-09
3.11403e-09
3.17006e-09
3.22685e-09
3.28442e-09
3.34276e-09
3.40187e-09
3.46177e-09
3.52244e-09
3.58391e-09
3.64616e-09
3.70921e-09
3.77305e-09
3.83769e-09
3.90313e-09
3.96937e-09
4.03641e-09
4.10424e-09
4.17288e-09
4.24232e-09
4.31256e-09
4.38359e-09
4.45542e-09
4.52805e-09
4.60146e-09
4.67565e-09
4.75063e-09
4.82638e-09
4.90289e-09
4.98015e-09
5.05817e-09
5.13692e-09
5.21639e-09
5.29657e-09
5.37744e-09
5.45898e-09
5.54118e-09
5.62402e-09
5.70745e-09
5.79147e-09
5.87604e-09
5.96112e-09
6.04668e-09
6.13267e-09
6.21906e-09
6.30578e-09
6.39279e-09
6.48002e-09
6.56741e-09
6.65487e-09
6.74233e-09
6.82969e-09
6.91685e-09
7.00371e-09
7.09014e-09
7.17601e-09
7.26118e-09
7.34547e-09
7.42871e-09
7.51071e-09
7.59124e-09
7.67008e-09
7.74695e-09
7.82158e-09
7.89365e-09
7.9628e-09
8.02866e-09
8.0908e-09
8.14875e-09
8.202e-09
8.24997e-09
8.29203e-09
8.32747e-09
8.35551e-09
8.37526e-09
8.38571e-09
1.8386e-15
5.89183e-15
1.03384e-14
1.52032e-14
2.05147e-14
2.63014e-14
3.25912e-14
3.94119e-14
4.67912e-14
5.47572e-14
6.33384e-14
7.25641e-14
8.24641e-14
9.30689e-14
1.0441e-13
1.16519e-13
1.2943e-13
1.43176e-13
1.57792e-13
1.73313e-13
1.89778e-13
2.07222e-13
2.25685e-13
2.45207e-13
2.65827e-13
2.87589e-13
3.10533e-13
3.34705e-13
3.60149e-13
3.86911e-13
4.15037e-13
4.44576e-13
4.75578e-13
5.08092e-13
5.42171e-13
5.77867e-13
6.15234e-13
6.54328e-13
6.95205e-13
7.37924e-13
7.82545e-13
8.29127e-13
8.77734e-13
9.2843e-13
9.81279e-13
1.03635e-12
1.09371e-12
1.15343e-12
1.21558e-12
1.28024e-12
1.34748e-12
1.41738e-12
1.49001e-12
1.56547e-12
1.64383e-12
1.72518e-12
1.80961e-12
1.89721e-12
1.98806e-12
2.08227e-12
2.17994e-12
2.28115e-12
2.38602e-12
2.49464e-12
2.60714e-12
2.7236e-12
2.84416e-12
2.96893e-12