/*--------------------------------*- C++ -*----------------------------------*\
  =========                 |
  \\      /  F ield         | OpenFOAM: The Open Source CFD Toolbox
   \\    /   O peration     | Website:  https://openfoam.org
    \\  /    A nd           | Version:  dev
     \\/     M anipulation  |
\*---------------------------------------------------------------------------*/
FoamFile
{
    format      ascii;
    class       volScalarField;
    location    "0.6";
    object      Exp1;
}
// * * * * * * * * * * * * * * * * * * * * * * * * * * * * * * * * * * * * * //

dimensions      [0 0 0 0 0 0 0];

internalField   uniform 0;

boundaryField
{
    frontAndBack
    {
        type            empty;
    }
    inlet
    {
        type            calculated;
        value           uniform 0;
    }
    outlet
    {
        type            calculated;
        value           uniform 0;
    }
    substrate
    {
        type            calculated;
        value           nonuniform List<scalar> 
400
(
2.31846e-15
7.38436e-15
1.29576e-14
1.90149e-14
2.556e-14
3.26157e-14
4.02041e-14
4.83484e-14
5.70747e-14
6.6411e-14
7.63875e-14
8.70357e-14
9.83882e-14
1.10479e-13
1.23342e-13
1.37012e-13
1.51527e-13
1.66921e-13
1.83232e-13
2.00499e-13
2.18758e-13
2.38048e-13
2.5841e-13
2.79884e-13
3.0251e-13
3.2633e-13
3.51388e-13
3.77726e-13
4.05388e-13
4.34421e-13
4.6487e-13
4.96782e-13
5.30207e-13
5.65193e-13
6.01791e-13
6.40053e-13
6.80031e-13
7.2178e-13
7.65355e-13
8.10812e-13
8.5821e-13
9.07607e-13
9.59065e-13
1.01265e-12
1.06841e-12
1.12643e-12
1.18677e-12
1.24949e-12
1.31467e-12
1.38237e-12
1.45268e-12
1.52567e-12
1.60141e-12
1.67998e-12
1.76147e-12
1.84596e-12
1.93352e-12
2.02426e-12
2.11826e-12
2.21561e-12
2.31641e-12
2.42074e-12
2.52872e-12
2.64045e-12
2.75602e-12
2.87554e-12
2.99914e-12
3.1269e-12
3.25896e-12
3.39544e-12
3.53644e-12
3.68211e-12
3.83256e-12
3.98792e-12
4.14834e-12
4.31395e-12
4.48489e-12
4.66131e-12
4.84335e-12
5.03118e-12
5.22494e-12
5.4248e-12
5.63093e-12
5.84349e-12
6.06266e-12
6.28861e-12
6.52154e-12
6.76162e-12
7.00905e-12
7.26403e-12
7.52677e-12
7.79746e-12
8.07632e-12
8.36358e-12
8.65944e-12
8.96416e-12
9.27795e-12
9.60107e-12
9.93375e-12
1.02763e-11
1.06289e-11
1.09918e-11
1.13654e-11
1.17498e-11
1.21455e-11
1.25527e-11
1.29716e-11
1.34026e-11
1.38461e-11
1.43023e-11
1.47715e-11
1.52542e-11
1.57506e-11
1.62611e-11
1.67861e-11
1.7326e-11
1.78811e-11
1.84518e-11
1.90386e-11
1.96418e-11
2.02618e-11
2.08992e-11
2.15543e-11
2.22275e-11
2.29194e-11
2.36305e-11
2.43611e-11
2.51118e-11
2.58831e-11
2.66755e-11
2.74895e-11
2.83258e-11
2.91847e-11
3.0067e-11
3.09731e-11
3.19037e-11
3.28594e-11
3.38408e-11
3.48484e-11
3.5883e-11
3.69453e-11
3.80358e-11
3.91552e-11
4.03044e-11
4.14839e-11
4.26946e-11
4.39371e-11
4.52122e-11
4.65207e-11
4.78634e-11
4.92412e-11
5.06547e-11
5.21049e-11
5.35927e-11
5.51189e-11
5.66844e-11
5.82901e-11
5.99369e-11
6.16259e-11
6.33579e-11
6.5134e-11
6.69551e-11
6.88223e-11
7.07367e-11
7.26993e-11
7.47111e-11
7.67734e-11
7.88872e-11
8.10536e-11
8.32739e-11
8.55492e-11
8.78808e-11
9.02698e-11
9.27176e-11
9.52254e-11
9.77944e-11
1.00426e-10
1.03122e-10
1.05883e-10
1.08711e-10
1.11607e-10
1.14572e-10
1.17609e-10
1.20718e-10
1.23902e-10
1.2716e-10
1.30497e-10
1.33911e-10
1.37407e-10
1.40984e-10
1.44645e-10
1.48391e-10
1.52225e-10
1.56147e-10
1.6016e-10
1.64266e-10
1.68465e-10
1.72761e-10
1.77155e-10
1.81648e-10
1.86244e-10
1.90943e-10
1.95748e-10
2.0066e-10
2.05683e-10
2.10817e-10
2.16065e-10
2.2143e-10
2.26912e-10
2.32515e-10
2.38241e-10
2.44091e-10
2.50069e-10
2.56176e-10
2.62414e-10
2.68787e-10
2.75296e-10
2.81943e-10
2.88732e-10
2.95665e-10
3.02744e-10
3.09971e-10
3.17349e-10
3.24881e-10
3.32569e-10
3.40417e-10
3.48425e-10
3.56598e-10
3.64937e-10
3.73446e-10
3.82127e-10
3.90983e-10
4.00017e-10
4.09231e-10
4.18628e-10
4.28211e-10
4.37984e-10
4.47948e-10
4.58107e-10
4.68463e-10
4.7902e-10
4.89781e-10
5.00747e-10
5.11924e-10
5.23312e-10
5.34916e-10
5.46738e-10
5.58782e-10
5.71051e-10
5.83546e-10
5.96273e-10
6.09233e-10
6.2243e-10
6.35867e-10
6.49547e-10
6.63472e-10
6.77648e-10
6.92075e-10
7.06758e-10
7.217e-10
7.36903e-10
7.52371e-10
7.68108e-10
7.84115e-10
8.00397e-10
8.16956e-10
8.33795e-10
8.50918e-10
8.68328e-10
8.86028e-10
9.0402e-10
9.22309e-10
9.40896e-10
9.59786e-10
9.78981e-10
9.98483e-10
1.0183e-09
1.03843e-09
1.05887e-09
1.07963e-09
1.10072e-09
1.12213e-09
1.14388e-09
1.16595e-09
1.18836e-09
1.2111e-09
1.23418e-09
1.25761e-09
1.28138e-09
1.3055e-09
1.32996e-09
1.35478e-09
1.37996e-09
1.40549e-09
1.43138e-09
1.45763e-09
1.48425e-09
1.51123e-09
1.53858e-09
1.56631e-09
1.5944e-09
1.62287e-09
1.65171e-09
1.68094e-09
1.71054e-09
1.74053e-09
1.77089e-09
1.80165e-09
1.83278e-09
1.86431e-09
1.89622e-09
1.92852e-09
1.96122e-09
1.9943e-09
2.02778e-09
2.06165e-09
2.09592e-09
2.13058e-09
2.16564e-09
2.20109e-09
2.23693e-09
2.27318e-09
2.30981e-09
2.34685e-09
2.38428e-09
2.4221e-09
2.46032e-09
2.49894e-09
2.53794e-09
2.57734e-09
2.61713e-09
2.65731e-09
2.69788e-09
2.73883e-09
2.78018e-09
2.8219e-09
2.864e-09
2.90649e-09
2.94934e-09
2.99258e-09
3.03618e-09
3.08015e-09
3.12448e-09
3.16917e-09
3.21421e-09
3.25961e-09
3.30535e-09
3.35143e-09
3.39785e-09
3.44459e-09
3.49166e-09
3.53904e-09
3.58672e-09
3.63471e-09
3.68298e-09
3.73153e-09
3.78036e-09
3.82944e-09
3.87877e-09
3.92833e-09
3.97811e-09
4.02809e-09
4.07825e-09
4.12859e-09
4.17907e-09
4.22968e-09
4.28039e-09
4.33118e-09
4.38202e-09
4.43288e-09
4.48372e-09
4.53452e-09
4.58522e-09
4.63579e-09
4.68617e-09
4.73632e-09
4.78618e-09
4.83568e-09
4.88476e-09
4.93334e-09
4.98133e-09
5.02865e-09
5.07519e-09
5.12085e-09
5.1655e-09
5.209e-09
5.25122e-09
5.29199e-09
5.33113e-09
5.36846e-09
5.40376e-09
5.4368e-09
5.46734e-09
5.49511e-09
5.51981e-09
5.54116e-09
5.55883e-09
5.57251e-09
5.58189e-09
5.58668e-09
)
;
    }
    Wall
    {
        type            calculated;
        value           nonuniform List<scalar> 
400
(
2.31842e-15
7.38423e-15
1.29574e-14
1.90145e-14
2.55594e-14
3.26149e-14
4.02031e-14
4.83472e-14
5.7073e-14
6.6409e-14
7.63851e-14
8.70328e-14
9.83848e-14
1.10475e-13
1.23337e-13
1.37007e-13
1.51521e-13
1.66915e-13
1.83225e-13
2.0049e-13
2.18749e-13
2.38039e-13
2.584e-13
2.79872e-13
3.02498e-13
3.26317e-13
3.51374e-13
3.77711e-13
4.05372e-13
4.34404e-13
4.64852e-13
4.96763e-13
5.30187e-13
5.65172e-13
6.01769e-13
6.4003e-13
6.80007e-13
7.21754e-13
7.65328e-13
8.10784e-13
8.5818e-13
9.07576e-13
9.59033e-13
1.01261e-12
1.06838e-12
1.12639e-12
1.18673e-12
1.24945e-12
1.31463e-12
1.38233e-12
1.45264e-12
1.52562e-12
1.60136e-12
1.67993e-12
1.76142e-12
1.8459e-12
1.93346e-12
2.0242e-12
2.11819e-12
2.21554e-12
2.31633e-12
2.42067e-12
2.52865e-12
2.64037e-12
2.75594e-12
2.87546e-12
2.99905e-12
3.12681e-12
3.25887e-12
3.39534e-12
3.53634e-12
3.682e-12
3.83245e-12
3.98781e-12
4.14822e-12
4.31383e-12
4.48477e-12
4.66118e-12
4.84322e-12
5.03104e-12
5.2248e-12
5.42466e-12
5.63078e-12
5.84333e-12
6.0625e-12
6.28845e-12
6.52136e-12
6.76144e-12
7.00887e-12
7.26384e-12
7.52657e-12
7.79725e-12
8.07611e-12
8.36335e-12
8.65921e-12
8.96392e-12
9.2777e-12
9.60081e-12
9.93349e-12
1.0276e-11
1.06286e-11
1.09915e-11
1.13651e-11
1.17495e-11
1.21452e-11
1.25523e-11
1.29713e-11
1.34023e-11
1.38457e-11
1.43019e-11
1.47711e-11
1.52538e-11
1.57502e-11
1.62607e-11
1.67857e-11
1.73256e-11
1.78806e-11
1.84514e-11
1.90381e-11
1.96413e-11
2.02613e-11
2.08987e-11
2.15537e-11
2.2227e-11
2.29189e-11
2.36299e-11
2.43605e-11
2.51111e-11
2.58824e-11
2.66748e-11
2.74889e-11
2.83251e-11
2.9184e-11
3.00663e-11
3.09724e-11
3.19029e-11
3.28586e-11
3.38399e-11
3.48476e-11
3.58821e-11
3.69443e-11
3.80348e-11
3.91543e-11
4.03034e-11
4.14829e-11
4.26935e-11
4.3936e-11
4.52111e-11
4.65196e-11
4.78623e-11
4.924e-11
5.06535e-11
5.21037e-11
5.35914e-11
5.51176e-11
5.6683e-11
5.82887e-11
5.99355e-11
6.16244e-11
6.33564e-11
6.51324e-11
6.69535e-11
6.88207e-11
7.0735e-11
7.26975e-11
7.47094e-11
7.67716e-11
7.88853e-11
8.10517e-11
8.32719e-11
8.55472e-11
8.78787e-11
9.02677e-11
9.27154e-11
9.52231e-11
9.77921e-11
1.00424e-10
1.03119e-10
1.0588e-10
1.08708e-10
1.11604e-10
1.1457e-10
1.17606e-10
1.20715e-10
1.23899e-10
1.27157e-10
1.30493e-10
1.33908e-10
1.37403e-10
1.40981e-10
1.44642e-10
1.48388e-10
1.52221e-10
1.56144e-10
1.60157e-10
1.64262e-10
1.68461e-10
1.72757e-10
1.77151e-10
1.81644e-10
1.86239e-10
1.90938e-10
1.95743e-10
2.00656e-10
2.05678e-10
2.10812e-10
2.1606e-10
2.21425e-10
2.26907e-10
2.3251e-10
2.38235e-10
2.44086e-10
2.50063e-10
2.5617e-10
2.62408e-10
2.68781e-10
2.75289e-10
2.81937e-10
2.88726e-10
2.95658e-10
3.02737e-10
3.09964e-10
3.17342e-10
3.24874e-10
3.32562e-10
3.40409e-10
3.48417e-10
3.5659e-10
3.64929e-10
3.73438e-10
3.82118e-10
3.90974e-10
4.00008e-10
4.09221e-10
4.18619e-10
4.28202e-10
4.37974e-10
4.47938e-10
4.58096e-10
4.68453e-10
4.79009e-10
4.8977e-10
5.00736e-10
5.11912e-10
5.233e-10
5.34904e-10
5.46726e-10
5.5877e-10
5.71038e-10
5.83533e-10
5.9626e-10
6.0922e-10
6.22416e-10
6.35853e-10
6.49532e-10
6.63458e-10
6.77633e-10
6.9206e-10
7.06743e-10
7.21684e-10
7.36887e-10
7.52355e-10
7.68091e-10
7.84098e-10
8.00379e-10
8.16938e-10
8.33777e-10
8.509e-10
8.6831e-10
8.86009e-10
9.04001e-10
9.22289e-10
9.40876e-10
9.59766e-10
9.7896e-10
9.98462e-10
1.01828e-09
1.0384e-09
1.05885e-09
1.07961e-09
1.1007e-09
1.12211e-09
1.14385e-09
1.16592e-09
1.18833e-09
1.21107e-09
1.23416e-09
1.25758e-09
1.28135e-09
1.30547e-09
1.32993e-09
1.35475e-09
1.37993e-09
1.40546e-09
1.43135e-09
1.4576e-09
1.48422e-09
1.5112e-09
1.53855e-09
1.56627e-09
1.59437e-09
1.62284e-09
1.65168e-09
1.6809e-09
1.71051e-09
1.74049e-09
1.77086e-09
1.80161e-09
1.83275e-09
1.86427e-09
1.89618e-09
1.92849e-09
1.96118e-09
1.99426e-09
2.02774e-09
2.06161e-09
2.09588e-09
2.13054e-09
2.16559e-09
2.20104e-09
2.23689e-09
2.27313e-09
2.30977e-09
2.3468e-09
2.38423e-09
2.42206e-09
2.46027e-09
2.49889e-09
2.53789e-09
2.57729e-09
2.61708e-09
2.65726e-09
2.69783e-09
2.73878e-09
2.78012e-09
2.82185e-09
2.86395e-09
2.90643e-09
2.94929e-09
2.99252e-09
3.03612e-09
3.08009e-09
3.12442e-09
3.16911e-09
3.21416e-09
3.25955e-09
3.30529e-09
3.35137e-09
3.39779e-09
3.44453e-09
3.49159e-09
3.53897e-09
3.58666e-09
3.63464e-09
3.68291e-09
3.73147e-09
3.78029e-09
3.82937e-09
3.8787e-09
3.92826e-09
3.97803e-09
4.02802e-09
4.07818e-09
4.12852e-09
4.179e-09
4.22961e-09
4.28032e-09
4.33111e-09
4.38195e-09
4.43281e-09
4.48365e-09
4.53444e-09
4.58514e-09
4.63571e-09
4.68609e-09
4.73624e-09
4.7861e-09
4.8356e-09
4.88468e-09
4.93326e-09
4.98125e-09
5.02857e-09
5.07511e-09
5.12077e-09
5.16542e-09
5.20892e-09
5.25114e-09
5.29191e-09
5.33106e-09
5.36839e-09
5.40369e-09
5.43673e-09
5.46727e-09
5.49503e-09
5.51974e-09
5.54109e-09
5.55877e-09
5.57246e-09
5.58184e-09
5.58663e-09
)
;
    }
}


// ************************************************************************* //
