/*--------------------------------*- C++ -*----------------------------------*\
  =========                 |
  \\      /  F ield         | OpenFOAM: The Open Source CFD Toolbox
   \\    /   O peration     | Website:  https://openfoam.org
    \\  /    A nd           | Version:  dev
     \\/     M anipulation  |
\*---------------------------------------------------------------------------*/
FoamFile
{
    format      ascii;
    class       volScalarField;
    location    "0.6";
    object      N1;
}
// * * * * * * * * * * * * * * * * * * * * * * * * * * * * * * * * * * * * * //

dimensions      [0 0 0 0 0 0 0];

internalField   nonuniform List<scalar> 
8000
(
1.76028e-14
5.60796e-14
9.84232e-14
1.44457e-13
1.94211e-13
2.4786e-13
3.05572e-13
3.67525e-13
4.33917e-13
5.04967e-13
5.80902e-13
6.61966e-13
7.48408e-13
8.40487e-13
9.38467e-13
1.04262e-12
1.15322e-12
1.27054e-12
1.39488e-12
1.52652e-12
1.66575e-12
1.81288e-12
1.9682e-12
2.13203e-12
2.30468e-12
2.48648e-12
2.67775e-12
2.87883e-12
3.09005e-12
3.31177e-12
3.54435e-12
3.78815e-12
4.04354e-12
4.31089e-12
4.59062e-12
4.8831e-12
5.18874e-12
5.50797e-12
5.84122e-12
6.1889e-12
6.55149e-12
6.92942e-12
7.32317e-12
7.73321e-12
8.16004e-12
8.60416e-12
9.06609e-12
9.54634e-12
1.00455e-11
1.0564e-11
1.11026e-11
1.16617e-11
1.22419e-11
1.2844e-11
1.34684e-11
1.41159e-11
1.47871e-11
1.54826e-11
1.62032e-11
1.69496e-11
1.77224e-11
1.85225e-11
1.93506e-11
2.02075e-11
2.1094e-11
2.20109e-11
2.2959e-11
2.39393e-11
2.49526e-11
2.59998e-11
2.70818e-11
2.81997e-11
2.93544e-11
3.0547e-11
3.17783e-11
3.30496e-11
3.43619e-11
3.57164e-11
3.71141e-11
3.85563e-11
4.00442e-11
4.15789e-11
4.31619e-11
4.47944e-11
4.64776e-11
4.82131e-11
5.00022e-11
5.18464e-11
5.37471e-11
5.57059e-11
5.77243e-11
5.98039e-11
6.19464e-11
6.41534e-11
6.64267e-11
6.8768e-11
7.11792e-11
7.36621e-11
7.62186e-11
7.88507e-11
8.15603e-11
8.43496e-11
8.72206e-11
9.01755e-11
9.32164e-11
9.63457e-11
9.95657e-11
1.02879e-10
1.06287e-10
1.09794e-10
1.13401e-10
1.17111e-10
1.20927e-10
1.24851e-10
1.28887e-10
1.33038e-10
1.37305e-10
1.41693e-10
1.46203e-10
1.50841e-10
1.55608e-10
1.60508e-10
1.65544e-10
1.70721e-10
1.7604e-10
1.81507e-10
1.87124e-10
1.92896e-10
1.98827e-10
2.04919e-10
2.11179e-10
2.17608e-10
2.24213e-10
2.30997e-10
2.37964e-10
2.4512e-10
2.52469e-10
2.60015e-10
2.67763e-10
2.75719e-10
2.83887e-10
2.92272e-10
3.00881e-10
3.09717e-10
3.18787e-10
3.28097e-10
3.37652e-10
3.47457e-10
3.5752e-10
3.67845e-10
3.7844e-10
3.8931e-10
4.00463e-10
4.11904e-10
4.2364e-10
4.35679e-10
4.48027e-10
4.60692e-10
4.7368e-10
4.87e-10
5.00659e-10
5.14664e-10
5.29024e-10
5.43746e-10
5.58839e-10
5.74311e-10
5.9017e-10
6.06426e-10
6.23087e-10
6.40163e-10
6.57661e-10
6.75592e-10
6.93965e-10
7.12789e-10
7.32076e-10
7.51834e-10
7.72073e-10
7.92805e-10
8.14039e-10
8.35787e-10
8.58059e-10
8.80866e-10
9.0422e-10
9.28132e-10
9.52614e-10
9.77678e-10
1.00333e-09
1.0296e-09
1.05648e-09
1.08399e-09
1.11215e-09
1.14096e-09
1.17044e-09
1.20061e-09
1.23147e-09
1.26305e-09
1.29534e-09
1.32838e-09
1.36217e-09
1.39673e-09
1.43207e-09
1.46821e-09
1.50517e-09
1.54295e-09
1.58158e-09
1.62106e-09
1.66143e-09
1.70268e-09
1.74485e-09
1.78794e-09
1.83198e-09
1.87697e-09
1.92294e-09
1.96991e-09
2.01789e-09
2.0669e-09
2.11696e-09
2.16809e-09
2.2203e-09
2.27362e-09
2.32806e-09
2.38364e-09
2.44039e-09
2.49832e-09
2.55745e-09
2.6178e-09
2.67939e-09
2.74224e-09
2.80638e-09
2.87182e-09
2.93859e-09
3.0067e-09
3.07618e-09
3.14704e-09
3.21931e-09
3.29302e-09
3.36818e-09
3.44481e-09
3.52294e-09
3.60259e-09
3.68378e-09
3.76654e-09
3.85089e-09
3.93684e-09
4.02443e-09
4.11368e-09
4.2046e-09
4.29723e-09
4.39158e-09
4.48769e-09
4.58557e-09
4.68524e-09
4.78674e-09
4.89008e-09
4.99529e-09
5.10239e-09
5.21141e-09
5.32237e-09
5.4353e-09
5.55021e-09
5.66714e-09
5.78611e-09
5.90713e-09
6.03024e-09
6.15546e-09
6.28282e-09
6.41233e-09
6.54402e-09
6.67792e-09
6.81405e-09
6.95243e-09
7.09308e-09
7.23604e-09
7.38131e-09
7.52894e-09
7.67893e-09
7.83132e-09
7.98612e-09
8.14336e-09
8.30306e-09
8.46524e-09
8.62993e-09
8.79714e-09
8.9669e-09
9.13923e-09
9.31415e-09
9.49168e-09
9.67184e-09
9.85465e-09
1.00401e-08
1.02283e-08
1.04192e-08
1.06128e-08
1.08092e-08
1.10083e-08
1.12102e-08
1.14149e-08
1.16224e-08
1.18328e-08
1.2046e-08
1.22621e-08
1.2481e-08
1.27029e-08
1.29276e-08
1.31553e-08
1.33859e-08
1.36195e-08
1.3856e-08
1.40955e-08
1.43379e-08
1.45834e-08
1.48318e-08
1.50832e-08
1.53377e-08
1.55952e-08
1.58557e-08
1.61192e-08
1.63858e-08
1.66554e-08
1.6928e-08
1.72037e-08
1.74825e-08
1.77643e-08
1.80491e-08
1.83369e-08
1.86279e-08
1.89218e-08
1.92188e-08
1.95188e-08
1.98218e-08
2.01278e-08
2.04368e-08
2.07488e-08
2.10638e-08
2.13817e-08
2.17026e-08
2.20265e-08
2.23532e-08
2.26828e-08
2.30153e-08
2.33506e-08
2.36888e-08
2.40297e-08
2.43734e-08
2.47199e-08
2.5069e-08
2.54208e-08
2.57752e-08
2.61322e-08
2.64917e-08
2.68537e-08
2.7218e-08
2.75848e-08
2.79538e-08
2.83251e-08
2.86985e-08
2.9074e-08
2.94515e-08
2.98309e-08
3.0212e-08
3.05949e-08
3.09793e-08
3.13651e-08
3.17522e-08
3.21405e-08
3.25297e-08
3.29197e-08
3.33104e-08
3.37014e-08
3.40925e-08
3.44835e-08
3.48742e-08
3.52641e-08
3.5653e-08
3.60405e-08
3.64262e-08
3.68097e-08
3.71904e-08
3.75678e-08
3.79415e-08
3.83106e-08
3.86745e-08
3.90325e-08
3.93836e-08
3.9727e-08
4.00616e-08
4.03863e-08
4.06998e-08
4.10009e-08
4.12879e-08
4.15594e-08
4.18135e-08
4.20484e-08
4.2262e-08
4.2452e-08
4.26162e-08
4.27521e-08
4.28573e-08
4.29294e-08
4.29662e-08
1.7244e-14
5.52803e-14
9.72667e-14
1.43143e-13
1.92905e-13
2.46669e-13
3.04583e-13
3.66817e-13
4.33568e-13
5.05053e-13
5.81505e-13
6.63169e-13
7.50301e-13
8.43164e-13
9.42029e-13
1.04717e-12
1.15888e-12
1.27744e-12
1.40313e-12
1.53627e-12
1.67714e-12
1.82606e-12
1.98335e-12
2.14931e-12
2.32428e-12
2.50858e-12
2.70256e-12
2.90655e-12
3.12092e-12
3.34603e-12
3.58223e-12
3.82991e-12
4.08945e-12
4.36125e-12
4.64571e-12
4.94324e-12
5.25426e-12
5.5792e-12
5.9185e-12
6.27262e-12
6.64201e-12
7.02715e-12
7.42852e-12
7.84661e-12
8.28195e-12
8.73503e-12
9.2064e-12
9.69659e-12
1.02062e-11
1.07357e-11
1.12858e-11
1.1857e-11
1.245e-11
1.30654e-11
1.37038e-11
1.43659e-11
1.50523e-11
1.57639e-11
1.65012e-11
1.7265e-11
1.80561e-11
1.88752e-11
1.97232e-11
2.06008e-11
2.15088e-11
2.24481e-11
2.34196e-11
2.44242e-11
2.54628e-11
2.65363e-11
2.76457e-11
2.8792e-11
2.99762e-11
3.11993e-11
3.24625e-11
3.37668e-11
3.51133e-11
3.65032e-11
3.79377e-11
3.9418e-11
4.09453e-11
4.2521e-11
4.41463e-11
4.58226e-11
4.75512e-11
4.93336e-11
5.11713e-11
5.30657e-11
5.50183e-11
5.70307e-11
5.91046e-11
6.12415e-11
6.34432e-11
6.57114e-11
6.80478e-11
7.04544e-11
7.29329e-11
7.54853e-11
7.81135e-11
8.08195e-11
8.36055e-11
8.64735e-11
8.94257e-11
9.24644e-11
9.55917e-11
9.881e-11
1.02122e-10
1.05529e-10
1.09035e-10
1.12642e-10
1.16353e-10
1.20169e-10
1.24095e-10
1.28133e-10
1.32285e-10
1.36555e-10
1.40946e-10
1.4546e-10
1.50102e-10
1.54874e-10
1.59779e-10
1.64822e-10
1.70005e-10
1.75332e-10
1.80807e-10
1.86433e-10
1.92214e-10
1.98155e-10
2.04259e-10
2.1053e-10
2.16973e-10
2.23591e-10
2.3039e-10
2.37373e-10
2.44545e-10
2.51912e-10
2.59476e-10
2.67245e-10
2.75221e-10
2.83412e-10
2.91821e-10
3.00454e-10
3.09317e-10
3.18415e-10
3.27753e-10
3.37339e-10
3.47176e-10
3.57272e-10
3.67633e-10
3.78265e-10
3.89174e-10
4.00367e-10
4.1185e-10
4.23631e-10
4.35717e-10
4.48114e-10
4.60829e-10
4.73871e-10
4.87246e-10
5.00962e-10
5.15028e-10
5.29451e-10
5.44238e-10
5.594e-10
5.74943e-10
5.90877e-10
6.0721e-10
6.23952e-10
6.41111e-10
6.58697e-10
6.76718e-10
6.95185e-10
7.14108e-10
7.33496e-10
7.5336e-10
7.7371e-10
7.94556e-10
8.15909e-10
8.3778e-10
8.60179e-10
8.83119e-10
9.06611e-10
9.30666e-10
9.55296e-10
9.80513e-10
1.00633e-09
1.03276e-09
1.05981e-09
1.0875e-09
1.11584e-09
1.14484e-09
1.17452e-09
1.20489e-09
1.23597e-09
1.26776e-09
1.30028e-09
1.33355e-09
1.36759e-09
1.4024e-09
1.438e-09
1.47441e-09
1.51164e-09
1.54971e-09
1.58863e-09
1.62842e-09
1.6691e-09
1.71068e-09
1.75319e-09
1.79663e-09
1.84102e-09
1.88639e-09
1.93274e-09
1.98011e-09
2.02849e-09
2.07793e-09
2.12842e-09
2.18e-09
2.23267e-09
2.28647e-09
2.3414e-09
2.39749e-09
2.45476e-09
2.51323e-09
2.57291e-09
2.63384e-09
2.69602e-09
2.75948e-09
2.82425e-09
2.89033e-09
2.95776e-09
3.02656e-09
3.09674e-09
3.16833e-09
3.24135e-09
3.31582e-09
3.39177e-09
3.46921e-09
3.54818e-09
3.62869e-09
3.71077e-09
3.79443e-09
3.87971e-09
3.96663e-09
4.0552e-09
4.14546e-09
4.23743e-09
4.33113e-09
4.42659e-09
4.52382e-09
4.62286e-09
4.72373e-09
4.82645e-09
4.93105e-09
5.03755e-09
5.14598e-09
5.25636e-09
5.36871e-09
5.48307e-09
5.59945e-09
5.71789e-09
5.8384e-09
5.96101e-09
6.08574e-09
6.21263e-09
6.34169e-09
6.47295e-09
6.60643e-09
6.74217e-09
6.88018e-09
7.02048e-09
7.16311e-09
7.30809e-09
7.45544e-09
7.60518e-09
7.75735e-09
7.91195e-09
8.06903e-09
8.22859e-09
8.39067e-09
8.55529e-09
8.72247e-09
8.89223e-09
9.06459e-09
9.23959e-09
9.41723e-09
9.59754e-09
9.78055e-09
9.96627e-09
1.01547e-08
1.03459e-08
1.05399e-08
1.07367e-08
1.09363e-08
1.11387e-08
1.1344e-08
1.15522e-08
1.17632e-08
1.19772e-08
1.21941e-08
1.24139e-08
1.26366e-08
1.28624e-08
1.30911e-08
1.33228e-08
1.35576e-08
1.37953e-08
1.40361e-08
1.428e-08
1.45269e-08
1.47769e-08
1.503e-08
1.52861e-08
1.55454e-08
1.58078e-08
1.60733e-08
1.63419e-08
1.66136e-08
1.68885e-08
1.71665e-08
1.74476e-08
1.77319e-08
1.80194e-08
1.83099e-08
1.86036e-08
1.89005e-08
1.92005e-08
1.95036e-08
1.98099e-08
2.01193e-08
2.04317e-08
2.07473e-08
2.1066e-08
2.13878e-08
2.17127e-08
2.20406e-08
2.23715e-08
2.27055e-08
2.30425e-08
2.33824e-08
2.37254e-08
2.40712e-08
2.442e-08
2.47717e-08
2.51262e-08
2.54835e-08
2.58437e-08
2.62065e-08
2.65721e-08
2.69403e-08
2.73112e-08
2.76846e-08
2.80605e-08
2.84388e-08
2.88195e-08
2.92025e-08
2.95878e-08
2.99752e-08
3.03646e-08
3.0756e-08
3.11493e-08
3.15443e-08
3.19409e-08
3.2339e-08
3.27385e-08
3.31392e-08
3.35408e-08
3.39433e-08
3.43465e-08
3.475e-08
3.51537e-08
3.55573e-08
3.59606e-08
3.63632e-08
3.67647e-08
3.71648e-08
3.7563e-08
3.7959e-08
3.83523e-08
3.87422e-08
3.91282e-08
3.95096e-08
3.98857e-08
4.02557e-08
4.06188e-08
4.09739e-08
4.13201e-08
4.16561e-08
4.19807e-08
4.22926e-08
4.25901e-08
4.28717e-08
4.31355e-08
4.33796e-08
4.36018e-08
4.37998e-08
4.39711e-08
4.41134e-08
4.42238e-08
4.42998e-08
4.4339e-08
1.69212e-14
5.42864e-14
9.54942e-14
1.40665e-13
1.89866e-13
2.43193e-13
3.00774e-13
3.62769e-13
4.29366e-13
5.00774e-13
5.77226e-13
6.58965e-13
7.46249e-13
8.39345e-13
9.38525e-13
1.04407e-12
1.15627e-12
1.27541e-12
1.40179e-12
1.53572e-12
1.6775e-12
1.82745e-12
1.98588e-12
2.15312e-12
2.32951e-12
2.51539e-12
2.71109e-12
2.91699e-12
3.13343e-12
3.36078e-12
3.59943e-12
3.84977e-12
4.11218e-12
4.38707e-12
4.67486e-12
4.97597e-12
5.29082e-12
5.61987e-12
5.96356e-12
6.32237e-12
6.69676e-12
7.08722e-12
7.49424e-12
7.91834e-12
8.36004e-12
8.81987e-12
9.29837e-12
9.79611e-12
1.03137e-11
1.08516e-11
1.14105e-11
1.19911e-11
1.25939e-11
1.32196e-11
1.38688e-11
1.45423e-11
1.52407e-11
1.59648e-11
1.67152e-11
1.74928e-11
1.82982e-11
1.91323e-11
1.9996e-11
2.08899e-11
2.18151e-11
2.27722e-11
2.37624e-11
2.47863e-11
2.58451e-11
2.69397e-11
2.8071e-11
2.92401e-11
3.0448e-11
3.16957e-11
3.29845e-11
3.43154e-11
3.56895e-11
3.71081e-11
3.85724e-11
4.00835e-11
4.16429e-11
4.32517e-11
4.49114e-11
4.66233e-11
4.83888e-11
5.02094e-11
5.20866e-11
5.40219e-11
5.60169e-11
5.80731e-11
6.01923e-11
6.23761e-11
6.46262e-11
6.69444e-11
6.93326e-11
7.17926e-11
7.43263e-11
7.69357e-11
7.96227e-11
8.23896e-11
8.52383e-11
8.8171e-11
9.119e-11
9.42975e-11
9.74959e-11
1.00787e-10
1.04175e-10
1.0766e-10
1.11247e-10
1.14936e-10
1.18732e-10
1.22637e-10
1.26653e-10
1.30784e-10
1.35032e-10
1.39401e-10
1.43894e-10
1.48514e-10
1.53264e-10
1.58147e-10
1.63167e-10
1.68327e-10
1.73632e-10
1.79084e-10
1.84687e-10
1.90445e-10
1.96363e-10
2.02444e-10
2.08692e-10
2.15111e-10
2.21706e-10
2.28481e-10
2.35441e-10
2.42589e-10
2.49932e-10
2.57473e-10
2.65218e-10
2.73171e-10
2.81338e-10
2.89723e-10
2.98333e-10
3.07172e-10
3.16247e-10
3.25562e-10
3.35124e-10
3.44939e-10
3.55012e-10
3.65351e-10
3.7596e-10
3.86847e-10
3.98018e-10
4.09481e-10
4.2124e-10
4.33305e-10
4.45682e-10
4.58377e-10
4.714e-10
4.84756e-10
4.98454e-10
5.12502e-10
5.26908e-10
5.4168e-10
5.56826e-10
5.72354e-10
5.88275e-10
6.04595e-10
6.21325e-10
6.38473e-10
6.56048e-10
6.74061e-10
6.92521e-10
7.11438e-10
7.30821e-10
7.50682e-10
7.7103e-10
7.91875e-10
8.1323e-10
8.35104e-10
8.57509e-10
8.80456e-10
9.03957e-10
9.28023e-10
9.52667e-10
9.779e-10
1.00373e-09
1.03018e-09
1.05726e-09
1.08498e-09
1.11334e-09
1.14238e-09
1.1721e-09
1.2025e-09
1.23362e-09
1.26546e-09
1.29803e-09
1.33136e-09
1.36545e-09
1.40032e-09
1.43599e-09
1.47247e-09
1.50978e-09
1.54793e-09
1.58694e-09
1.62682e-09
1.6676e-09
1.70929e-09
1.7519e-09
1.79545e-09
1.83997e-09
1.88547e-09
1.93196e-09
1.97946e-09
2.028e-09
2.07759e-09
2.12825e-09
2.18e-09
2.23286e-09
2.28685e-09
2.34198e-09
2.39828e-09
2.45577e-09
2.51447e-09
2.5744e-09
2.63557e-09
2.69802e-09
2.76175e-09
2.8268e-09
2.89318e-09
2.96092e-09
3.03004e-09
3.10056e-09
3.1725e-09
3.24588e-09
3.32073e-09
3.39707e-09
3.47493e-09
3.55432e-09
3.63527e-09
3.71781e-09
3.80195e-09
3.88772e-09
3.97515e-09
4.06426e-09
4.15506e-09
4.2476e-09
4.34189e-09
4.43796e-09
4.53582e-09
4.63552e-09
4.73706e-09
4.84048e-09
4.9458e-09
5.05305e-09
5.16225e-09
5.27343e-09
5.38661e-09
5.50181e-09
5.61908e-09
5.73842e-09
5.85986e-09
5.98343e-09
6.10916e-09
6.23708e-09
6.36719e-09
6.49954e-09
6.63415e-09
6.77104e-09
6.91024e-09
7.05178e-09
7.19567e-09
7.34195e-09
7.49064e-09
7.64176e-09
7.79534e-09
7.9514e-09
8.10997e-09
8.27108e-09
8.43474e-09
8.60098e-09
8.76983e-09
8.94131e-09
9.11544e-09
9.29224e-09
9.47174e-09
9.65396e-09
9.83893e-09
1.00267e-08
1.02172e-08
1.04105e-08
1.06067e-08
1.08057e-08
1.10075e-08
1.12123e-08
1.142e-08
1.16306e-08
1.18441e-08
1.20607e-08
1.22802e-08
1.25027e-08
1.27282e-08
1.29568e-08
1.31884e-08
1.34231e-08
1.36608e-08
1.39017e-08
1.41457e-08
1.43928e-08
1.4643e-08
1.48964e-08
1.51529e-08
1.54126e-08
1.56755e-08
1.59415e-08
1.62108e-08
1.64832e-08
1.67589e-08
1.70378e-08
1.73199e-08
1.76052e-08
1.78938e-08
1.81855e-08
1.84805e-08
1.87788e-08
1.90803e-08
1.9385e-08
1.96929e-08
2.0004e-08
2.03184e-08
2.06359e-08
2.09567e-08
2.12807e-08
2.16078e-08
2.19382e-08
2.22716e-08
2.26083e-08
2.2948e-08
2.32909e-08
2.36369e-08
2.39859e-08
2.4338e-08
2.46931e-08
2.50512e-08
2.54123e-08
2.57763e-08
2.61432e-08
2.6513e-08
2.68856e-08
2.7261e-08
2.76392e-08
2.802e-08
2.84034e-08
2.87895e-08
2.91781e-08
2.95691e-08
2.99625e-08
3.03582e-08
3.07561e-08
3.11561e-08
3.15582e-08
3.19622e-08
3.2368e-08
3.27755e-08
3.31845e-08
3.35949e-08
3.40066e-08
3.44194e-08
3.4833e-08
3.52473e-08
3.56621e-08
3.60771e-08
3.6492e-08
3.69066e-08
3.73206e-08
3.77335e-08
3.8145e-08
3.85547e-08
3.89621e-08
3.93668e-08
3.97681e-08
4.01654e-08
4.05582e-08
4.09456e-08
4.13269e-08
4.17012e-08
4.20675e-08
4.24246e-08
4.27716e-08
4.3107e-08
4.34294e-08
4.37374e-08
4.40291e-08
4.43028e-08
4.45564e-08
4.47877e-08
4.49943e-08
4.51737e-08
4.5323e-08
4.54396e-08
4.55203e-08
4.55621e-08
1.66001e-14
5.32451e-14
9.35962e-14
1.37863e-13
1.86194e-13
2.38721e-13
2.95582e-13
3.5694e-13
4.2298e-13
4.9391e-13
5.69959e-13
6.51367e-13
7.38393e-13
8.313e-13
9.30363e-13
1.03586e-12
1.14809e-12
1.26734e-12
1.3939e-12
1.5281e-12
1.67023e-12
1.82061e-12
1.97958e-12
2.14747e-12
2.3246e-12
2.51133e-12
2.70802e-12
2.91501e-12
3.13269e-12
3.36143e-12
3.60161e-12
3.85363e-12
4.1179e-12
4.39483e-12
4.68483e-12
4.98835e-12
5.30582e-12
5.6377e-12
5.98445e-12
6.34654e-12
6.72446e-12
7.11871e-12
7.52979e-12
7.95823e-12
8.40456e-12
8.86931e-12
9.35306e-12
9.85637e-12
1.03798e-11
1.0924e-11
1.14896e-11
1.20772e-11
1.26874e-11
1.33209e-11
1.39784e-11
1.46605e-11
1.53681e-11
1.61017e-11
1.68622e-11
1.76504e-11
1.84669e-11
1.93127e-11
2.01885e-11
2.10952e-11
2.20337e-11
2.30048e-11
2.40095e-11
2.50487e-11
2.61233e-11
2.72344e-11
2.8383e-11
2.957e-11
3.07967e-11
3.20639e-11
3.3373e-11
3.4725e-11
3.6121e-11
3.75624e-11
3.90503e-11
4.05861e-11
4.21709e-11
4.38063e-11
4.54934e-11
4.72338e-11
4.90289e-11
5.08801e-11
5.2789e-11
5.47572e-11
5.67862e-11
5.88777e-11
6.10333e-11
6.32548e-11
6.55439e-11
6.79025e-11
7.03324e-11
7.28355e-11
7.54138e-11
7.80693e-11
8.08039e-11
8.36199e-11
8.65194e-11
8.95045e-11
9.25776e-11
9.5741e-11
9.8997e-11
1.02348e-10
1.05797e-10
1.09346e-10
1.12997e-10
1.16754e-10
1.20619e-10
1.24595e-10
1.28685e-10
1.32892e-10
1.37219e-10
1.41669e-10
1.46245e-10
1.5095e-10
1.55788e-10
1.60762e-10
1.65875e-10
1.71132e-10
1.76536e-10
1.8209e-10
1.87798e-10
1.93665e-10
1.99693e-10
2.05889e-10
2.12254e-10
2.18795e-10
2.25514e-10
2.32418e-10
2.39509e-10
2.46793e-10
2.54275e-10
2.6196e-10
2.69852e-10
2.77956e-10
2.86279e-10
2.94825e-10
3.03599e-10
3.12607e-10
3.21856e-10
3.3135e-10
3.41095e-10
3.51099e-10
3.61366e-10
3.71903e-10
3.82717e-10
3.93814e-10
4.05201e-10
4.16884e-10
4.28871e-10
4.4117e-10
4.53786e-10
4.66727e-10
4.80002e-10
4.93618e-10
5.07582e-10
5.21904e-10
5.3659e-10
5.51649e-10
5.6709e-10
5.82922e-10
5.99153e-10
6.15792e-10
6.32849e-10
6.50332e-10
6.68252e-10
6.86618e-10
7.0544e-10
7.24728e-10
7.44492e-10
7.64742e-10
7.8549e-10
8.06746e-10
8.28521e-10
8.50827e-10
8.73674e-10
8.97074e-10
9.21039e-10
9.45581e-10
9.70712e-10
9.96444e-10
1.02279e-09
1.04976e-09
1.07738e-09
1.10564e-09
1.13458e-09
1.16419e-09
1.19449e-09
1.22551e-09
1.25724e-09
1.28972e-09
1.32294e-09
1.35693e-09
1.39171e-09
1.42727e-09
1.46366e-09
1.50087e-09
1.53892e-09
1.57783e-09
1.61763e-09
1.65831e-09
1.69991e-09
1.74243e-09
1.7859e-09
1.83033e-09
1.87575e-09
1.92216e-09
1.96959e-09
2.01805e-09
2.06757e-09
2.11816e-09
2.16985e-09
2.22265e-09
2.27658e-09
2.33166e-09
2.38791e-09
2.44535e-09
2.50401e-09
2.5639e-09
2.62505e-09
2.68747e-09
2.75118e-09
2.81622e-09
2.8826e-09
2.95034e-09
3.01946e-09
3.08999e-09
3.16195e-09
3.23536e-09
3.31025e-09
3.38664e-09
3.46454e-09
3.544e-09
3.62502e-09
3.70764e-09
3.79187e-09
3.87775e-09
3.96529e-09
4.05452e-09
4.14546e-09
4.23815e-09
4.3326e-09
4.42884e-09
4.52689e-09
4.62679e-09
4.72855e-09
4.8322e-09
4.93777e-09
5.04528e-09
5.15476e-09
5.26623e-09
5.37973e-09
5.49527e-09
5.61288e-09
5.73259e-09
5.85442e-09
5.97841e-09
6.10457e-09
6.23293e-09
6.36353e-09
6.49637e-09
6.6315e-09
6.76894e-09
6.90871e-09
7.05084e-09
7.19536e-09
7.34229e-09
7.49165e-09
7.64348e-09
7.79779e-09
7.95462e-09
8.11399e-09
8.27592e-09
8.44044e-09
8.60758e-09
8.77735e-09
8.94979e-09
9.12491e-09
9.30275e-09
9.48332e-09
9.66665e-09
9.85276e-09
1.00417e-08
1.02334e-08
1.0428e-08
1.06255e-08
1.08258e-08
1.10291e-08
1.12353e-08
1.14445e-08
1.16566e-08
1.18718e-08
1.20899e-08
1.23111e-08
1.25354e-08
1.27627e-08
1.29931e-08
1.32266e-08
1.34632e-08
1.3703e-08
1.39459e-08
1.4192e-08
1.44413e-08
1.46938e-08
1.49494e-08
1.52083e-08
1.54705e-08
1.57358e-08
1.60044e-08
1.62763e-08
1.65515e-08
1.68299e-08
1.71116e-08
1.73966e-08
1.76849e-08
1.79765e-08
1.82714e-08
1.85696e-08
1.88711e-08
1.9176e-08
1.94841e-08
1.97955e-08
2.01103e-08
2.04283e-08
2.07497e-08
2.10743e-08
2.14022e-08
2.17333e-08
2.20678e-08
2.24055e-08
2.27464e-08
2.30905e-08
2.34379e-08
2.37885e-08
2.41422e-08
2.4499e-08
2.4859e-08
2.52221e-08
2.55883e-08
2.59575e-08
2.63298e-08
2.6705e-08
2.70831e-08
2.74642e-08
2.78481e-08
2.82348e-08
2.86243e-08
2.90165e-08
2.94114e-08
2.98088e-08
3.02088e-08
3.06112e-08
3.1016e-08
3.14231e-08
3.18323e-08
3.22437e-08
3.2657e-08
3.30723e-08
3.34892e-08
3.39078e-08
3.43279e-08
3.47492e-08
3.51717e-08
3.55951e-08
3.60193e-08
3.64439e-08
3.68689e-08
3.72938e-08
3.77184e-08
3.81424e-08
3.85654e-08
3.89871e-08
3.9407e-08
3.98246e-08
4.02395e-08
4.0651e-08
4.10587e-08
4.14617e-08
4.18595e-08
4.2251e-08
4.26356e-08
4.30121e-08
4.33795e-08
4.37366e-08
4.40821e-08
4.44146e-08
4.47325e-08
4.50341e-08
4.53174e-08
4.55804e-08
4.58208e-08
4.60361e-08
4.62236e-08
4.63804e-08
4.65033e-08
4.65889e-08
4.66337e-08
1.62969e-14
5.2257e-14
9.1798e-14
1.35151e-13
1.82521e-13
2.34086e-13
2.90019e-13
3.50501e-13
4.15728e-13
4.85914e-13
5.61286e-13
6.42087e-13
7.28572e-13
8.21004e-13
9.19655e-13
1.02481e-12
1.13675e-12
1.25577e-12
1.38217e-12
1.51626e-12
1.65836e-12
1.80878e-12
1.96785e-12
2.13591e-12
2.31331e-12
2.50039e-12
2.6975e-12
2.90503e-12
3.12334e-12
3.35281e-12
3.59384e-12
3.84684e-12
4.1122e-12
4.39036e-12
4.68174e-12
4.98678e-12
5.30593e-12
5.63966e-12
5.98842e-12
6.35272e-12
6.73304e-12
7.12988e-12
7.54376e-12
7.97522e-12
8.4248e-12
8.89304e-12
9.38053e-12
9.88783e-12
1.04156e-11
1.09643e-11
1.15347e-11
1.21274e-11
1.27431e-11
1.33824e-11
1.40459e-11
1.47346e-11
1.54489e-11
1.61898e-11
1.69579e-11
1.7754e-11
1.85789e-11
1.94335e-11
2.03186e-11
2.1235e-11
2.21837e-11
2.31655e-11
2.41813e-11
2.52322e-11
2.63191e-11
2.74429e-11
2.86048e-11
2.98058e-11
3.1047e-11
3.23294e-11
3.36542e-11
3.50226e-11
3.64358e-11
3.78949e-11
3.94014e-11
4.09564e-11
4.25612e-11
4.42173e-11
4.5926e-11
4.76888e-11
4.95071e-11
5.13825e-11
5.33164e-11
5.53105e-11
5.73663e-11
5.94856e-11
6.167e-11
6.39214e-11
6.62414e-11
6.86319e-11
7.10949e-11
7.36322e-11
7.62459e-11
7.89379e-11
8.17104e-11
8.45654e-11
8.75053e-11
9.05321e-11
9.36483e-11
9.68562e-11
1.00158e-10
1.03557e-10
1.07054e-10
1.10653e-10
1.14357e-10
1.18168e-10
1.22088e-10
1.26122e-10
1.30271e-10
1.34539e-10
1.38928e-10
1.43442e-10
1.48085e-10
1.52858e-10
1.57767e-10
1.62814e-10
1.68002e-10
1.73336e-10
1.78819e-10
1.84455e-10
1.90248e-10
1.96201e-10
2.0232e-10
2.08607e-10
2.15067e-10
2.21705e-10
2.28525e-10
2.35531e-10
2.42729e-10
2.50122e-10
2.57716e-10
2.65516e-10
2.73527e-10
2.81754e-10
2.90202e-10
2.98877e-10
3.07784e-10
3.16929e-10
3.26317e-10
3.35955e-10
3.45849e-10
3.56004e-10
3.66428e-10
3.77126e-10
3.88105e-10
3.99371e-10
4.10932e-10
4.22795e-10
4.34966e-10
4.47453e-10
4.60263e-10
4.73404e-10
4.86883e-10
5.00709e-10
5.14888e-10
5.29431e-10
5.44344e-10
5.59636e-10
5.75317e-10
5.91394e-10
6.07877e-10
6.24774e-10
6.42096e-10
6.59852e-10
6.78051e-10
6.96704e-10
7.15819e-10
7.35408e-10
7.55482e-10
7.76049e-10
7.97122e-10
8.18712e-10
8.40829e-10
8.63484e-10
8.86691e-10
9.10459e-10
9.34802e-10
9.5973e-10
9.85258e-10
1.0114e-09
1.03816e-09
1.06556e-09
1.09361e-09
1.12232e-09
1.15172e-09
1.1818e-09
1.21259e-09
1.2441e-09
1.27634e-09
1.30933e-09
1.34308e-09
1.37762e-09
1.41294e-09
1.44908e-09
1.48605e-09
1.52385e-09
1.56252e-09
1.60206e-09
1.64249e-09
1.68383e-09
1.72609e-09
1.7693e-09
1.81347e-09
1.85862e-09
1.90477e-09
1.95193e-09
2.00013e-09
2.04938e-09
2.0997e-09
2.15112e-09
2.20364e-09
2.2573e-09
2.31211e-09
2.36808e-09
2.42525e-09
2.48364e-09
2.54325e-09
2.60412e-09
2.66627e-09
2.72971e-09
2.79447e-09
2.86058e-09
2.92805e-09
2.9969e-09
3.06716e-09
3.13885e-09
3.212e-09
3.28662e-09
3.36275e-09
3.4404e-09
3.5196e-09
3.60037e-09
3.68274e-09
3.76673e-09
3.85236e-09
3.93966e-09
4.02866e-09
4.11938e-09
4.21185e-09
4.30608e-09
4.40211e-09
4.49996e-09
4.59966e-09
4.70123e-09
4.8047e-09
4.91009e-09
5.01744e-09
5.12676e-09
5.23808e-09
5.35144e-09
5.46685e-09
5.58434e-09
5.70395e-09
5.82568e-09
5.94958e-09
6.07567e-09
6.20398e-09
6.33453e-09
6.46735e-09
6.60246e-09
6.7399e-09
6.87968e-09
7.02184e-09
7.1664e-09
7.3134e-09
7.46284e-09
7.61477e-09
7.76921e-09
7.92618e-09
8.08571e-09
8.24783e-09
8.41256e-09
8.57992e-09
8.74995e-09
8.92266e-09
9.09809e-09
9.27625e-09
9.45718e-09
9.64089e-09
9.82742e-09
1.00168e-08
1.0209e-08
1.04041e-08
1.06021e-08
1.0803e-08
1.10069e-08
1.12137e-08
1.14235e-08
1.16364e-08
1.18523e-08
1.20712e-08
1.22932e-08
1.25183e-08
1.27465e-08
1.29779e-08
1.32123e-08
1.345e-08
1.36908e-08
1.39349e-08
1.41821e-08
1.44326e-08
1.46863e-08
1.49433e-08
1.52035e-08
1.54671e-08
1.57339e-08
1.6004e-08
1.62775e-08
1.65542e-08
1.68343e-08
1.71178e-08
1.74046e-08
1.76947e-08
1.79883e-08
1.82851e-08
1.85854e-08
1.8889e-08
1.9196e-08
1.95064e-08
1.98201e-08
2.01373e-08
2.04577e-08
2.07816e-08
2.11088e-08
2.14394e-08
2.17733e-08
2.21106e-08
2.24512e-08
2.27951e-08
2.31423e-08
2.34928e-08
2.38466e-08
2.42037e-08
2.45639e-08
2.49274e-08
2.52941e-08
2.5664e-08
2.6037e-08
2.64131e-08
2.67923e-08
2.71746e-08
2.75598e-08
2.7948e-08
2.83392e-08
2.87332e-08
2.91301e-08
2.95297e-08
2.99321e-08
3.03371e-08
3.07447e-08
3.11548e-08
3.15673e-08
3.19822e-08
3.23993e-08
3.28186e-08
3.324e-08
3.36633e-08
3.40884e-08
3.45151e-08
3.49434e-08
3.5373e-08
3.58039e-08
3.62357e-08
3.66683e-08
3.71015e-08
3.7535e-08
3.79685e-08
3.84018e-08
3.88345e-08
3.92663e-08
3.96968e-08
4.01255e-08
4.05521e-08
4.09759e-08
4.13965e-08
4.18131e-08
4.22252e-08
4.26321e-08
4.30328e-08
4.34265e-08
4.38121e-08
4.41887e-08
4.4555e-08
4.49098e-08
4.52514e-08
4.55785e-08
4.58891e-08
4.61814e-08
4.64533e-08
4.67023e-08
4.69259e-08
4.71213e-08
4.72852e-08
4.74144e-08
4.75049e-08
4.75525e-08
1.60286e-14
5.13793e-14
9.0201e-14
1.3272e-13
1.79172e-13
2.29772e-13
2.84731e-13
3.44258e-13
4.08568e-13
4.77887e-13
5.5245e-13
6.32502e-13
7.18297e-13
8.10097e-13
9.08173e-13
1.0128e-12
1.12427e-12
1.24287e-12
1.36891e-12
1.50268e-12
1.6445e-12
1.79471e-12
1.95361e-12
2.12156e-12
2.29891e-12
2.48599e-12
2.68318e-12
2.89085e-12
3.10937e-12
3.33914e-12
3.58055e-12
3.83401e-12
4.09994e-12
4.37876e-12
4.67091e-12
4.97683e-12
5.29698e-12
5.63183e-12
5.98185e-12
6.34754e-12
6.7294e-12
7.12793e-12
7.54367e-12
7.97715e-12
8.42892e-12
8.89954e-12
9.3896e-12
9.89967e-12
1.04304e-11
1.09823e-11
1.15561e-11
1.21525e-11
1.2772e-11
1.34155e-11
1.40835e-11
1.47768e-11
1.54961e-11
1.62422e-11
1.70158e-11
1.78178e-11
1.8649e-11
1.95101e-11
2.0402e-11
2.13257e-11
2.22819e-11
2.32717e-11
2.42959e-11
2.53556e-11
2.64517e-11
2.75852e-11
2.87571e-11
2.99686e-11
3.12208e-11
3.25147e-11
3.38515e-11
3.52324e-11
3.66586e-11
3.81313e-11
3.96519e-11
4.12216e-11
4.28417e-11
4.45137e-11
4.6239e-11
4.8019e-11
4.98552e-11
5.1749e-11
5.37022e-11
5.57162e-11
5.77928e-11
5.99336e-11
6.21402e-11
6.44146e-11
6.67586e-11
6.91739e-11
7.16625e-11
7.42263e-11
7.68674e-11
7.95878e-11
8.23896e-11
8.5275e-11
8.82463e-11
9.13056e-11
9.44553e-11
9.76977e-11
1.01035e-10
1.04471e-10
1.08007e-10
1.11645e-10
1.1539e-10
1.19242e-10
1.23206e-10
1.27284e-10
1.31479e-10
1.35795e-10
1.40233e-10
1.44798e-10
1.49492e-10
1.5432e-10
1.59284e-10
1.64388e-10
1.69635e-10
1.75029e-10
1.80575e-10
1.86275e-10
1.92134e-10
1.98155e-10
2.04344e-10
2.10703e-10
2.17238e-10
2.23952e-10
2.30851e-10
2.37938e-10
2.45219e-10
2.52698e-10
2.60381e-10
2.68272e-10
2.76376e-10
2.84699e-10
2.93246e-10
3.02022e-10
3.11034e-10
3.20286e-10
3.29785e-10
3.39537e-10
3.49548e-10
3.59823e-10
3.7037e-10
3.81195e-10
3.92304e-10
4.03704e-10
4.15403e-10
4.27407e-10
4.39723e-10
4.52359e-10
4.65323e-10
4.78621e-10
4.92262e-10
5.06253e-10
5.20603e-10
5.35321e-10
5.50414e-10
5.65891e-10
5.8176e-10
5.98032e-10
6.14714e-10
6.31817e-10
6.49349e-10
6.6732e-10
6.85741e-10
7.0462e-10
7.23969e-10
7.43797e-10
7.64115e-10
7.84935e-10
8.06266e-10
8.2812e-10
8.50508e-10
8.73442e-10
8.96933e-10
9.20994e-10
9.45637e-10
9.70874e-10
9.96717e-10
1.02318e-09
1.05027e-09
1.07801e-09
1.10641e-09
1.13548e-09
1.16524e-09
1.1957e-09
1.22687e-09
1.25877e-09
1.29141e-09
1.32482e-09
1.35899e-09
1.39396e-09
1.42973e-09
1.46632e-09
1.50375e-09
1.54203e-09
1.58119e-09
1.62122e-09
1.66217e-09
1.70403e-09
1.74683e-09
1.79059e-09
1.83532e-09
1.88104e-09
1.92777e-09
1.97554e-09
2.02435e-09
2.07423e-09
2.12519e-09
2.17726e-09
2.23046e-09
2.2848e-09
2.34031e-09
2.39701e-09
2.45492e-09
2.51405e-09
2.57443e-09
2.63609e-09
2.69904e-09
2.7633e-09
2.8289e-09
2.89586e-09
2.9642e-09
3.03395e-09
3.10513e-09
3.17775e-09
3.25185e-09
3.32745e-09
3.40457e-09
3.48324e-09
3.56347e-09
3.6453e-09
3.72875e-09
3.81385e-09
3.90061e-09
3.98906e-09
4.07923e-09
4.17115e-09
4.26484e-09
4.36032e-09
4.45762e-09
4.55677e-09
4.65779e-09
4.76071e-09
4.86556e-09
4.97236e-09
5.08114e-09
5.19192e-09
5.30473e-09
5.41961e-09
5.53657e-09
5.65564e-09
5.77685e-09
5.90023e-09
6.0258e-09
6.15359e-09
6.28363e-09
6.41594e-09
6.55056e-09
6.68751e-09
6.82681e-09
6.96849e-09
7.11259e-09
7.25912e-09
7.40812e-09
7.55961e-09
7.71362e-09
7.87017e-09
8.0293e-09
8.19102e-09
8.35537e-09
8.52236e-09
8.69203e-09
8.86441e-09
9.03951e-09
9.21737e-09
9.398e-09
9.58144e-09
9.7677e-09
9.95682e-09
1.01488e-08
1.03437e-08
1.05415e-08
1.07423e-08
1.0946e-08
1.11528e-08
1.13625e-08
1.15753e-08
1.17911e-08
1.20101e-08
1.22321e-08
1.24572e-08
1.26855e-08
1.2917e-08
1.31516e-08
1.33894e-08
1.36304e-08
1.38747e-08
1.41222e-08
1.4373e-08
1.46271e-08
1.48844e-08
1.51451e-08
1.54091e-08
1.56764e-08
1.59471e-08
1.62211e-08
1.64985e-08
1.67793e-08
1.70634e-08
1.7351e-08
1.76419e-08
1.79363e-08
1.82341e-08
1.85353e-08
1.884e-08
1.9148e-08
1.94595e-08
1.97745e-08
2.00928e-08
2.04146e-08
2.07398e-08
2.10685e-08
2.14005e-08
2.1736e-08
2.20749e-08
2.24171e-08
2.27628e-08
2.31118e-08
2.34642e-08
2.382e-08
2.4179e-08
2.45414e-08
2.49071e-08
2.52761e-08
2.56483e-08
2.60238e-08
2.64024e-08
2.67842e-08
2.71692e-08
2.75572e-08
2.79484e-08
2.83425e-08
2.87396e-08
2.91397e-08
2.95427e-08
2.99485e-08
3.0357e-08
3.07683e-08
3.11822e-08
3.15987e-08
3.20176e-08
3.2439e-08
3.28627e-08
3.32886e-08
3.37166e-08
3.41466e-08
3.45784e-08
3.5012e-08
3.54471e-08
3.58837e-08
3.63215e-08
3.67603e-08
3.72e-08
3.76403e-08
3.8081e-08
3.85217e-08
3.89623e-08
3.94023e-08
3.98415e-08
4.02794e-08
4.07156e-08
4.11497e-08
4.15811e-08
4.20093e-08
4.24336e-08
4.28535e-08
4.32681e-08
4.36766e-08
4.40781e-08
4.44717e-08
4.48563e-08
4.52306e-08
4.55934e-08
4.59431e-08
4.62782e-08
4.65969e-08
4.68972e-08
4.7177e-08
4.74337e-08
4.76649e-08
4.78674e-08
4.80379e-08
4.81728e-08
4.82678e-08
4.83181e-08
1.58038e-14
5.06435e-14
8.8864e-14
1.30679e-13
1.76334e-13
2.26072e-13
2.80133e-13
3.38757e-13
4.0218e-13
4.70645e-13
5.44396e-13
6.23683e-13
7.08762e-13
7.99896e-13
8.97353e-13
1.00141e-12
1.11235e-12
1.23046e-12
1.35604e-12
1.48939e-12
1.63084e-12
1.7807e-12
1.93931e-12
2.107e-12
2.28412e-12
2.47102e-12
2.66808e-12
2.87567e-12
3.09416e-12
3.32395e-12
3.56545e-12
3.81906e-12
4.0852e-12
4.36431e-12
4.65682e-12
4.96319e-12
5.28387e-12
5.61934e-12
5.97009e-12
6.3366e-12
6.71939e-12
7.11897e-12
7.53587e-12
7.97063e-12
8.42382e-12
8.89599e-12
9.38774e-12
9.89966e-12
1.04324e-11
1.09865e-11
1.15626e-11
1.21615e-11
1.27837e-11
1.343e-11
1.41011e-11
1.47977e-11
1.55205e-11
1.62703e-11
1.70479e-11
1.7854e-11
1.86896e-11
1.95554e-11
2.04523e-11
2.13811e-11
2.23429e-11
2.33384e-11
2.43687e-11
2.54347e-11